Title

900 atoms
800 bonds
1300 angles
1600 dihedrals
0 impropers

5 atom types
4 bond types
3 angle types
6 dihedral types
-3.162843229 -3.162842976 xlo xhi
-3.16273577 -3.162735518 ylo yhi
-0.5669343492 -0.5669340967 zlo zhi
0.0 0.0 0.0 xy xz yz

Masses

1	12.01078
2	15.99943
3	1.007947
4	1.007947
5	1.007947


Pair Coeffs

1	0.10884061	3.3795318
2	0.20947353	2.99716
3	0.015779483	2.6445434
4	0.016409246	2.5832257
5	1.2326e-05	0.53453923

Bond Coeffs

1	215.30139056395	1.533627603844
2	357.8191474159	1.094206460752
3	258.9527804663	1.426323519316
4	538.350794015	0.9752301008088


Angle Coeffs

1	66.75631831595	109.9380527584
2	119.8958895535	112.8736161145
3	36.776637850755	108.3543135269


Dihedral Coeffs

1 1	0.4431584714139	3	0
2 1	0.1140296769156	1	0
3 1	0.1311347012225	3	0
4 1	0.436546671918	1	0
5 1	0.2279946533057	3	0
6 1	0.3636269884643333	3	0


Atoms

1	1	1	-0.097101	-1.0750727	1.9288621	1.3520421
2	1	1	0.1314	-1.4744203	0.77095637	0.45054991
3	1	2	-0.6028	-0.32696545	0.098935281	0.012762325
4	1	3	0.044367	-0.51967969	1.5488146	2.2356633
5	1	3	0.044367	-1.9839308	2.4633496	1.7004529
6	1	3	0.044367	-0.43036892	2.6405336	0.79386156
7	1	4	0.0187	-2.038357	1.1661117	-0.42355925
8	1	4	0.0187	-2.1277604	0.073039531	1.0200216
9	1	5	0.398	-0.64650898	-0.64051312	-0.56693422
10	2	1	-0.097101	2.2010469	0.17799555	1.352042
11	2	1	0.1314	1.3131549	1.0217206	0.45054983
12	2	2	-0.6028	0.22566334	0.25645783	0.012762248
13	2	3	0.044367	1.6248386	-0.16968459	2.2356633
14	2	3	0.044367	3.0644152	0.78321874	1.7004528
15	2	3	0.044367	2.5811287	-0.70385317	0.79386148
16	2	4	0.0187	1.906654	1.370907	-0.42355932
17	2	4	0.0187	0.94917114	1.9057212	1.0200216
18	2	5	0.398	-0.31458687	0.85397077	-0.5669343
19	3	1	-0.097101	-1.0772402	-1.9276524	1.3520421
20	3	1	0.1314	0.11791266	-1.6596342	0.45054991
21	3	2	-0.6028	0.087453743	-0.3302218	0.012762331
22	3	3	0.044367	-1.0453641	-1.2554311	2.2356634
23	3	3	0.044367	-1.0549902	-2.9817894	1.7004529
24	3	3	0.044367	-2.0214154	-1.7525738	0.79386157
25	3	4	0.0187	0.07766379	-2.3470586	-0.42355924
26	3	4	0.0187	1.0549153	-1.8492844	1.0200216
27	3	5	0.398	0.88455995	-0.21397334	-0.56693422
28	4	1	-0.097101	0.63702341	-2.1143536	1.352042
29	4	1	0.1314	1.2750931	-1.0688435	0.45054986
30	4	2	-0.6028	0.29818977	-0.16666564	0.012762281
31	4	3	0.044367	0.17591214	-1.6241761	2.2356633
32	4	3	0.044367	1.4103217	-2.831089	1.7004529
33	4	3	0.044367	-0.14513946	-2.6714358	0.79386152
34	4	4	0.0187	1.7413141	-1.575608	-0.42355929
35	4	4	0.0187	2.062746	-0.52704649	1.0200216
36	4	5	0.398	0.7686862	0.4871884	-0.56693427
37	5	1	-0.097101	2.1522787	0.49394982	1.352042
38	5	1	0.1314	1.1518622	1.2006258	0.45054986
39	5	2	-0.6028	0.1862673	0.28635477	0.012762273
40	5	3	0.044367	1.6323121	0.066711839	2.2356633
41	5	3	0.044367	2.919208	1.2174962	1.7004528
42	5	3	0.044367	2.6557117	-0.32377545	0.79386151
43	5	4	0.0187	1.6887209	1.6318509	-0.4235593
44	5	4	0.0187	0.66404785	2.0228048	1.0200216
45	5	5	0.398	-0.43459892	0.79959657	-0.56693427
46	6	1	-0.097101	-0.78378551	-2.0644541	1.3520421
47	6	1	0.1314	0.35932911	-1.6245528	0.45054991
48	6	2	-0.6028	0.1348012	-0.31388415	0.012762327
49	6	3	0.044367	-0.85054917	-1.3947973	2.2356633
50	6	3	0.044367	-0.60763106	-3.1040066	1.7004529
51	6	3	0.044367	-1.7434131	-2.0293216	0.79386156
52	6	4	0.0187	0.4200331	-2.3104736	-0.42355924
53	6	4	0.0187	1.313992	-1.6751491	1.0200216
54	6	5	0.398	0.90634062	-0.082326549	-0.56693422
55	7	1	-0.097101	-0.34897454	-2.1804832	1.352042
56	7	1	0.1314	0.68121911	-1.5179688	0.45054986
57	7	2	-0.6028	0.19563684	-0.28003716	0.012762275
58	7	3	0.044367	-0.55011389	-1.5382679	2.2356633
59	7	3	0.044367	0.034274388	-3.1627358	1.7004528
60	7	3	0.044367	-1.2957969	-2.3406293	0.79386151
61	7	4	0.0187	0.8797219	-2.177339	-0.4235593
62	7	4	0.0187	1.6263149	-1.3739719	1.0200216
63	7	5	0.398	0.9042098	0.10312907	-0.56693427
64	8	1	-0.097101	-1.6113188	-1.5099478	1.3520421
65	8	1	0.1314	-0.39118525	-1.6171776	0.4505499
66	8	2	-0.6028	-0.016859263	-0.34118972	0.012762315
67	8	3	0.044367	-1.3769906	-0.87908497	2.2356633
68	8	3	0.044367	-1.9099471	-2.5211456	1.7004529
69	8	3	0.044367	-2.4578679	-1.0566554	0.79386155
70	8	4	0.0187	-0.63810424	-2.2599865	-0.42355926
71	8	4	0.0187	0.44410834	-2.0821785	1.0200216
72	8	5	0.398	0.77794319	-0.47226625	-0.56693423
73	9	1	-0.097101	-0.17100981	2.2016008	1.352042
74	9	1	0.1314	-1.0175483	1.3163907	0.45054987
75	9	2	-0.6028	-0.25574051	0.22647612	0.012762291
76	9	3	0.044367	0.17484	1.624292	2.2356633
77	9	3	0.044367	-0.77349009	3.0668853	1.7004529
78	9	3	0.044367	0.71204065	2.5788821	0.79386153
79	9	4	0.0187	-1.3648495	1.910995	-0.42355928
80	9	4	0.0187	-1.9026995	0.95521416	1.0200216
81	9	5	0.398	-0.85496491	-0.31187518	-0.56693426
82	10	1	-0.097101	0.043855667	2.2077968	1.352042
83	10	1	0.1314	-0.88473847	1.4090871	0.45054986
84	10	2	-0.6028	-0.23250912	0.25026796	0.012762275
85	10	3	0.044367	0.33193689	1.5995972	2.2356633
86	10	3	0.044367	-0.47164115	3.1275592	1.7004528
87	10	3	0.044367	0.95940438	2.4974343	0.79386151
88	10	4	0.0187	-1.1725826	2.0346414	-0.4235593
89	10	4	0.0187	-1.8008122	1.1356823	1.0200216
90	10	5	0.398	-0.88123683	-0.22727194	-0.56693427
91	11	1	-0.097101	-1.9609087	-1.0154445	1.352042
92	11	1	0.1314	-0.81578769	-1.4500963	0.45054981
93	11	2	-0.6028	-0.10891087	-0.32377925	0.012762226
94	11	3	0.044367	-1.5640159	-0.4719616	2.2356632
95	11	3	0.044367	-2.5230031	-1.9074926	1.7004528
96	11	3	0.044367	-2.6524845	-0.34922971	0.79386146
97	11	4	0.0187	-1.228043	-2.0016558	-0.42355934
98	11	4	0.0187	-0.13822479	-2.1245218	1.0200215
99	11	5	0.398	0.62039551	-0.66583801	-0.56693432
100	12	1	-0.097101	-1.5780518	1.5446823	1.352042
101	12	1	0.1314	-1.6325473	0.3210588	0.45054987
102	12	2	-0.6028	-0.34159939	0.0021252628	0.012762284
103	12	3	0.044367	-0.93766771	1.3377866	2.2356633
104	12	3	0.044367	-2.6011906	1.7994112	1.7004529
105	12	3	0.044367	-1.1617001	2.4099976	0.79386152
106	12	4	0.0187	-2.2854095	0.54001823	-0.42355929
107	12	4	0.0187	-2.0610821	-0.53351657	1.0200216
108	12	5	0.398	-0.43826745	-0.79759174	-0.56693426
109	13	1	-0.097101	0.39837609	2.1720006	1.352042
110	13	1	0.1314	-0.64658959	1.5330397	0.45054983
111	13	2	-0.6028	-0.18923039	0.28440547	0.012762249
112	13	3	0.044367	0.58488693	1.5253853	2.2356633
113	13	3	0.044367	0.037520588	3.1626989	1.7004528
114	13	3	0.044367	1.3485894	2.3106149	0.79386148
115	13	4	0.0187	-0.83007518	2.1967455	-0.42355932
116	13	4	0.0187	-1.5947103	1.4105313	1.0200216
117	13	5	0.398	-0.90631773	-0.082579204	-0.5669343
118	14	1	-0.097101	0.69444563	2.0961954	1.352042
119	14	1	0.1314	-0.42873242	1.6076309	0.45054986
120	14	2	-0.6028	-0.1481505	0.30780833	0.012762275
121	14	3	0.044367	0.78989304	1.4300218	2.2356633
122	14	3	0.044367	0.47383035	3.1272283	1.7004528
123	14	3	0.044367	1.6546968	2.1022877	0.79386151
124	14	4	0.0187	-0.51882388	2.2903138	-0.4235593
125	14	4	0.0187	-1.3846872	1.6172013	1.0200216
126	14	5	0.398	-0.90903907	0.043345527	-0.56693427
127	15	1	-0.097101	0.71846015	2.0880866	1.352042
128	15	1	0.1314	-0.4102517	1.6124462	0.45054982
129	15	2	-0.6028	-0.14460776	0.30948868	0.012762233
130	15	3	0.044367	0.80625486	1.4208612	2.2356633
131	15	3	0.044367	0.5096937	3.1215838	1.7004528
132	15	3	0.044367	1.6787179	2.0831566	0.79386147
133	15	4	0.0187	-0.49250132	2.2961181	-0.42355934
134	15	4	0.0187	-1.3660337	1.6329885	1.0200215
135	15	5	0.398	-0.90848175	0.053776852	-0.56693431
136	16	1	-0.097101	1.733641	-1.3677645	1.3520421
137	16	1	0.1314	1.6574611	-0.1452994	0.45054993
138	16	2	-0.6028	0.33988156	0.03428096	0.012762346
139	16	3	0.044367	1.074859	-1.230273	2.2356634
140	16	3	0.044367	2.7780954	-1.5120381	1.7004529
141	16	3	0.044367	1.4118499	-2.272513	0.79386158
142	16	4	0.0187	2.3299355	-0.29345648	-0.42355922
143	16	4	0.0187	1.9925103	0.75006829	1.0200216
144	16	5	0.398	0.35079735	0.83974533	-0.5669342
145	17	1	-0.097101	-0.64870173	-2.1107999	1.352042
146	17	1	0.1314	0.46358742	-1.5979285	0.45054988
147	17	2	-0.6028	0.1548085	-0.3045142	0.012762293
148	17	3	0.044367	-0.75861185	-1.4468591	2.2356633
149	17	3	0.044367	-0.40571982	-3.1367919	1.7004529
150	17	3	0.044367	-1.6085934	-2.1377704	0.79386153
151	17	4	0.0187	0.56850184	-2.278491	-0.42355928
152	17	4	0.0187	1.4195243	-1.5867104	1.0200216
153	17	5	0.398	0.9097667	-0.023569161	-0.56693425
154	18	1	-0.097101	2.197176	0.22069925	1.352042
155	18	1	0.1314	1.2930689	1.0470253	0.4505498
156	18	2	-0.6028	0.22064131	0.26079122	0.012762213
157	18	3	0.044367	1.6278271	-0.13810343	2.2356632
158	18	3	0.044367	3.04863	0.84257215	1.7004528
159	18	3	0.044367	2.5943088	-0.65360327	0.79386145
160	18	4	0.0187	1.8796761	1.4076696	-0.42355936
161	18	4	0.0187	0.91198938	1.9237918	1.0200215
162	18	5	0.398	-0.33110881	0.84770161	-0.56693433
163	19	1	-0.097101	0.56536317	2.1346323	1.3520421
164	19	1	0.1314	-0.52594136	1.578504	0.45054995
165	19	2	-0.6028	-0.16664004	0.2982042	0.012762364
166	19	3	0.044367	0.70124508	1.4755164	2.2356634
167	19	3	0.044367	0.28230322	3.150298	1.7004529
168	19	3	0.044367	1.5234568	2.1992531	0.7938616
169	19	4	0.0187	-0.65748375	2.2544248	-0.42355921
170	19	4	0.0187	-1.4807016	1.5297786	1.0200217
171	19	5	0.398	-0.9099909	-0.012152863	-0.56693418
172	20	1	-0.097101	1.2412344	-1.82637	1.3520421
173	20	1	0.1314	1.5367514	-0.63771786	0.45054994
174	20	2	-0.6028	0.33442592	-0.069669973	0.012762353
175	20	3	0.044367	0.65444495	-1.4968618	2.2356634
176	20	3	0.044367	2.1937482	-2.2784954	1.7004529
177	20	3	0.044367	0.66190732	-2.5922025	0.79386159
178	20	4	0.0187	2.1333856	-0.98152019	-0.42355922
179	20	4	0.0187	2.125896	0.11517651	1.0200217
180	20	5	0.398	0.5874102	0.69511167	-0.56693419
181	21	1	-0.097101	0.9357077	2.0001853	1.352042
182	21	1	0.1314	-0.2370556	1.6468435	0.45054983
183	21	2	-0.6028	-0.11099398	0.32307103	0.012762249
184	21	3	0.044367	0.95229602	1.3274131	2.2356633
185	21	3	0.044367	0.83764608	3.0499871	1.7004528
186	21	3	0.044367	1.8900352	1.8935158	0.79386149
187	21	4	0.0187	-0.24638706	2.335382	-0.42355932
188	21	4	0.0187	-1.1852779	1.768563	1.0200216
189	21	5	0.398	-0.89766621	0.14975398	-0.5669343
190	22	1	-0.097101	1.9549097	-1.0269463	1.352042
191	22	1	0.1314	1.6560231	0.16086305	0.45054981
192	22	2	-0.6028	0.32784574	0.095978286	0.012762231
193	22	3	0.044367	1.2820883	-1.0124936	2.2356633
194	22	3	0.044367	3.0081166	-0.97739819	1.7004528
195	22	3	0.044367	1.804347	-1.9753398	0.79386147
196	22	4	0.0187	2.3442594	0.1384342	-0.42355934
197	22	4	0.0187	1.8213383	1.1024639	1.0200215
198	22	5	0.398	0.19098867	0.88980582	-0.56693431
199	23	1	-0.097101	0.05175803	-2.2076257	1.3520421
200	23	1	0.1314	0.94490666	-1.3694672	0.45054991
201	23	2	-0.6028	0.24312501	-0.23996842	0.012762322
202	23	3	0.044367	-0.26238128	-1.6124669	2.2356633
203	23	3	0.044367	0.60658688	-3.1042108	1.7004529
204	23	3	0.044367	-0.85039444	-2.5366246	0.79386156
205	23	4	0.0187	1.2595603	-1.9819747	-0.42355925
206	23	4	0.0187	1.8482863	-1.0566631	1.0200216
207	23	5	0.398	0.87057255	0.26520638	-0.56693422
208	24	1	-0.097101	-2.1327173	-0.57254462	1.352042
209	24	1	0.1314	-1.1070589	-1.2420586	0.45054986
210	24	2	-0.6028	-0.17564105	-0.29299286	0.012762272
211	24	3	0.044367	-1.6287678	-0.12652612	2.2356633
212	24	3	0.044367	-2.8725972	-1.3237287	1.7004528
213	24	3	0.044367	-2.6657988	0.22616904	0.79386151
214	24	4	0.0187	-1.6277428	-1.692681	-0.4235593
215	24	4	0.0187	-0.58942221	-2.0457958	1.0200216
216	24	5	0.398	0.46362885	-0.78312141	-0.56693427
217	25	1	-0.097101	1.1609376	1.8784339	1.3520421
218	25	1	0.1314	-0.044841887	1.6632132	0.45054992
219	25	2	-0.6028	-0.072852913	0.33374704	0.012762337
220	25	3	0.044367	1.0995418	1.2082637	2.2356634
221	25	3	0.044367	1.1850486	2.93253	1.7004529
222	25	3	0.044367	2.0965037	1.6620189	0.79386157
223	25	4	0.0187	0.025587009	2.3482038	-0.42355923
224	25	4	0.0187	-0.97260181	1.8938704	1.0200216
225	25	5	0.398	-0.8742988	0.25265147	-0.56693421
226	26	1	-0.097101	-1.331189	1.7618815	1.352042
227	26	1	0.1314	-1.5667751	0.55991499	0.4505498
228	26	2	-0.6028	-0.33749684	0.052825383	0.012762219
229	26	3	0.044367	-0.72862596	1.4621893	2.2356632
230	26	3	0.044367	-2.3051608	2.1657115	1.7004528
231	26	3	0.044367	-0.79096301	2.5557802	0.79386145
232	26	4	0.0187	-2.1798867	0.87339001	-0.42355935
233	26	4	0.0187	-2.1174545	-0.22155381	1.0200215
234	26	5	0.398	-0.55184255	-0.72367183	-0.56693433
235	27	1	-0.097101	-1.6434879	1.4748688	1.352042
236	27	1	0.1314	-1.6449232	0.25003319	0.45054982
237	27	2	-0.6028	-0.3413707	-0.012675394	0.012762235
238	27	3	0.044367	-0.99474202	1.2959096	2.2356633
239	27	3	0.044367	-2.6767013	1.6850348	1.7004528
240	27	3	0.044367	-1.2650136	2.3574086	0.79386147
241	27	4	0.0187	-2.3066582	0.44050423	-0.42355934
242	27	4	0.0187	-2.0360345	-0.62230459	1.0200215
243	27	5	0.398	-0.40330324	-0.8158294	-0.56693431
244	28	1	-0.097101	0.29855592	-2.1879567	1.3520421
245	28	1	0.1314	1.0922669	-1.2550863	0.45054988
246	28	2	-0.6028	0.26845913	-0.21124452	0.012762296
247	28	3	0.044367	-0.080231502	-1.6317034	2.2356633
248	28	3	0.044367	0.950262	-3.0167986	1.7004529
249	28	3	0.044367	-0.56109805	-2.6158753	0.79386153
250	28	4	0.0187	1.4735075	-1.8285215	-0.42355927
251	28	4	0.0187	1.9549532	-0.84312327	1.0200216
252	28	5	0.398	0.83541346	0.36099214	-0.56693425
253	29	1	-0.097101	1.8561593	-1.1962288	1.352042
254	29	1	0.1314	1.6637637	0.013402625	0.45054985
255	29	2	-0.6028	0.33506425	0.066532674	0.012762264
256	29	3	0.044367	1.187269	-1.1221791	2.2356633
257	29	3	0.044367	2.9096115	-1.2402556	1.7004528
258	29	3	0.044367	1.6221028	-2.127538	0.7938615
259	29	4	0.0187	2.347301	-0.069958528	-0.42355931
260	29	4	0.0187	1.9119124	0.93663795	1.0200216
261	29	5	0.398	0.26912874	0.86936797	-0.56693428
262	30	1	-0.097101	2.1658231	0.43069822	1.352042
263	30	1	0.1314	1.1865341	1.166373	0.45054982
264	30	2	-0.6028	0.19457473	0.28077621	0.012762241
265	30	3	0.044367	1.6335659	0.01887323	2.2356633
266	30	3	0.044367	2.9536158	1.131471	1.7004528
267	30	3	0.044367	2.6450891	-0.40142163	0.79386148
268	30	4	0.0187	1.7357929	1.5816886	-0.42355933
269	30	4	0.0187	0.72301047	2.0024872	1.0200215
270	30	5	0.398	-0.4109924	0.81198282	-0.56693431
271	31	1	-0.097101	0.64699688	-2.1113231	1.3520421
272	31	1	0.1314	1.2801242	-1.0628127	0.45054991
273	31	2	-0.6028	0.29897312	-0.16525622	0.012762324
274	31	3	0.044367	0.1835769	-1.6233277	2.2356633
275	31	3	0.044367	1.4236699	-2.8244001	1.7004529
276	31	3	0.044367	-0.13252762	-2.6720912	0.79386156
277	31	4	0.0187	1.7487322	-1.5673708	-0.42355925
278	31	4	0.0187	2.0652109	-0.51730362	1.0200216
279	31	5	0.398	0.76637785	0.49081148	-0.56693422
280	32	1	-0.097101	-1.8503292	-1.2052269	1.3520421
281	32	1	0.1314	-0.66769279	-1.523967	0.45054988
282	32	2	-0.6028	-0.076206264	-0.33299736	0.012762301
283	32	3	0.044367	-1.5093919	-0.6250034	2.2356633
284	32	3	0.044367	-2.3210229	-2.1487031	1.7004529
285	32	3	0.044367	-2.6046687	-0.61101205	0.79386154
286	32	4	0.0187	-1.0231143	-2.1137533	-0.42355927
287	32	4	0.0187	0.073518756	-2.127744	1.0200216
288	32	5	0.398	0.68347398	-0.60091139	-0.56693424
289	33	1	-0.097101	-2.2033899	-0.14616156	1.3520421
290	33	1	0.1314	-1.3277864	-1.0026326	0.45054993
291	33	2	-0.6028	-0.2293468	-0.25316915	0.01276235
292	33	3	0.044367	-1.6222161	0.19315335	2.2356634
293	33	3	0.044367	-3.0754162	-0.73884184	1.7004529
294	33	3	0.044367	-2.5706851	0.74108898	0.79386159
295	33	4	0.0187	-1.9262709	-1.3432037	-0.42355922
296	33	4	0.0187	-0.97661855	-1.8918021	1.0200217
297	33	5	0.398	0.30221012	-0.8584288	-0.5669342
298	34	1	-0.097101	-0.21641938	-2.1976017	1.352042
299	34	1	0.1314	0.77180611	-1.4739757	0.45054985
300	34	2	-0.6028	0.21222026	-0.26768853	0.012762264
301	34	3	0.044367	-0.45604338	-1.5687313	2.2356633
302	34	3	0.044367	0.22555236	-3.1548691	1.7004528
303	34	3	0.044367	-1.1518188	-2.4147358	0.7938615
304	34	4	0.0187	1.0098362	-2.1201289	-0.42355931
305	34	4	0.0187	1.7064592	-1.2730656	1.0200216
306	34	5	0.398	0.89631434	0.15764345	-0.56693428
307	35	1	-0.097101	-1.0589097	-1.9377824	1.352042
308	35	1	0.1314	0.1336475	-1.6584412	0.4505498
309	35	2	-0.6028	0.090581701	-0.32937752	0.012762221
310	35	3	0.044367	-1.0334105	-1.265289	2.2356632
311	35	3	0.044367	-1.0266632	-2.9916609	1.7004528
312	35	3	0.044367	-2.0047029	-1.7716663	0.79386146
313	35	4	0.0187	0.099920029	-2.3462165	-0.42355935
314	35	4	0.0187	1.0724067	-1.8391963	1.0200215
315	35	5	0.398	0.88654955	-0.20557447	-0.56693433
316	36	1	-0.097101	0.1170422	-2.2051285	1.3520421
317	36	1	0.1314	0.98500519	-1.3409153	0.45054988
318	36	2	-0.6028	0.25011739	-0.23267123	0.012762295
319	36	3	0.044367	-0.21456585	-1.6195231	2.2356633
320	36	3	0.044367	0.69815136	-3.084908	1.7004529
321	36	3	0.044367	-0.77498287	-2.5606712	0.79386153
322	36	4	0.0187	1.3176406	-1.9438465	-0.42355928
323	36	4	0.0187	1.878736	-1.001524	1.0200216
324	36	5	0.398	0.86234605	0.29084388	-0.56693425
325	37	1	-0.097101	1.9342978	1.0652615	1.352042
326	37	1	0.1314	0.77843545	1.4704853	0.45054983
327	37	2	-0.6028	0.10059468	0.32645872	0.012762243
328	37	3	0.044367	1.5514341	0.511806	2.2356633
329	37	3	0.044367	2.4733948	1.9713929	1.7004528
330	37	3	0.044367	2.6426855	0.41695113	0.79386148
331	37	4	0.0187	1.1764501	2.0324076	-0.42355933
332	37	4	0.0187	0.083846167	2.127362	1.0200215
333	37	5	0.398	-0.6372211	0.64975406	-0.5669343
334	38	1	-0.097101	-0.79950198	-2.0584186	1.352042
335	38	1	0.1314	0.34693318	-1.6272451	0.4505498
336	38	2	-0.6028	0.13240422	-0.31490275	0.012762215
337	38	3	0.044367	-0.8611583	-1.3882723	2.2356632
338	38	3	0.044367	-0.6312781	-3.0992839	1.7004528
339	38	3	0.044367	-1.7588338	-2.015971	0.79386145
340	38	4	0.0187	0.40240601	-2.3136087	-0.42355936
341	38	4	0.0187	1.3011826	-1.6851182	1.0200215
342	38	5	0.398	0.90568659	-0.089234028	-0.56693433
343	39	1	-0.097101	-1.7668436	1.3245958	1.3520421
344	39	1	0.1314	-1.6605401	0.10438115	0.4505499
345	39	2	-0.6028	-0.33893268	-0.042652225	0.012762316
346	39	3	0.044367	-1.1048713	1.2033922	2.2356633
347	39	3	0.044367	-2.8145382	1.4430686	1.7004529
348	39	3	0.044367	-1.4674621	2.2370047	0.79386155
349	39	4	0.0187	-2.3364636	0.23590951	-0.42355925
350	39	4	0.0187	-1.973407	-0.79897677	1.0200216
351	39	5	0.398	-0.32998189	-0.84814083	-0.56693423
352	40	1	-0.097101	-1.9610634	1.0151457	1.352042
353	40	1	0.1314	-1.6550235	-0.17084074	0.45054983
354	40	2	-0.6028	-0.32726133	-0.097952447	0.012762244
355	40	3	0.044367	-1.2881671	1.0047482	2.2356633
356	40	3	0.044367	-3.0139526	0.95925099	1.7004528
357	40	3	0.044367	-1.8162193	1.9644294	0.79386148
358	40	4	0.0187	-2.3433825	-0.15256018	-0.42355933
359	40	4	0.0187	-1.8146608	-1.1134208	1.0200215
360	40	5	0.398	-0.18562247	-0.89094074	-0.5669343
361	41	1	-0.097101	0.32221546	2.1845977	1.3520421
362	41	1	0.1314	-0.69977828	1.5095029	0.45054989
363	41	2	-0.6028	-0.19905537	0.27761755	0.012762306
364	41	3	0.044367	0.53121331	1.5448967	2.2356633
365	41	3	0.044367	-0.07304715	3.1620778	1.7004529
366	41	3	0.044367	1.2670033	2.3563399	0.79386154
367	41	4	0.0187	-0.90635009	2.1663898	-0.42355926
368	41	4	0.0187	-1.6430377	1.3539299	1.0200216
369	41	5	0.398	-0.90287743	-0.11420704	-0.56693424
370	42	1	-0.097101	1.1213696	-1.9023197	1.3520421
371	42	1	0.1314	1.4926199	-0.73510192	0.45054989
372	42	2	-0.6028	0.32926073	-0.091005233	0.012762311
373	42	3	0.044367	0.55695493	-1.5358042	2.2356633
374	42	3	0.044367	2.0428781	-2.4146886	1.7004529
375	42	3	0.044367	0.49405156	-2.6293627	0.79386155
376	42	4	0.0187	2.0659408	-1.1165144	-0.42355926
377	42	4	0.0187	2.1289041	-0.021600954	1.0200216
378	42	5	0.398	0.63084223	0.65594899	-0.56693424
379	43	1	-0.097101	-2.1791413	0.35725856	1.352042
380	43	1	0.1314	-1.5205468	-0.6754454	0.45054987
381	43	2	-0.6028	-0.28077866	-0.19457115	0.012762285
382	43	3	0.044367	-1.5361662	0.55595585	2.2356633
383	43	3	0.044367	-3.1628432	-0.02225475	1.7004529
384	43	3	0.044367	-2.335688	1.3046827	0.79386152
385	43	4	0.0187	-2.1806665	-0.87144096	-0.42355929
386	43	4	0.0187	-1.3801425	-1.6210816	1.0200216
387	43	5	0.398	0.099692015	-0.90459514	-0.56693426
388	44	1	-0.097101	-0.67004014	2.1041238	1.3520421
389	44	1	0.1314	-1.2916669	1.0487545	0.45054988
390	44	2	-0.6028	-0.30076201	0.16197796	0.012762294
391	44	3	0.044367	-0.2013129	1.6212238	2.2356633
392	44	3	0.044367	-1.4544624	2.8086673	1.7004529
393	44	3	0.044367	0.10330724	2.6733805	0.79386153
394	44	4	0.0187	-1.7657629	1.5481594	-0.42355928
395	44	4	0.0187	-2.0707429	0.49469512	1.0200216
396	44	5	0.398	-0.76096642	-0.49916038	-0.56693425
397	45	1	-0.097101	-1.9803587	-0.97696944	1.352042
398	45	1	0.1314	-0.84394143	-1.4338939	0.45054984
399	45	2	-0.6028	-0.11521093	-0.32159138	0.01276226
400	45	3	0.044367	-1.5729315	-0.44133837	2.2356633
401	45	3	0.044367	-2.5597609	-1.8578741	1.7004528
402	45	3	0.044367	-2.6587967	-0.29738035	0.7938615
403	45	4	0.0187	-1.2668859	-1.9773001	-0.42355931
404	45	4	0.0187	-0.17967406	-2.1214185	1.0200216
405	45	5	0.398	0.60727866	-0.67782276	-0.56693429
406	46	1	-0.097101	-0.83953651	2.0424173	1.3520421
407	46	1	0.1314	-1.3729535	0.93983374	0.45054992
408	46	2	-0.6028	-0.31297868	0.13689019	0.012762335
409	46	3	0.044367	-0.33296031	1.5993844	2.2356634
410	46	3	0.044367	-1.6788443	2.6805883	1.7004529
411	46	3	0.044367	-0.11523009	2.672893	0.79386157
412	46	4	0.0187	-1.8862277	1.3988783	-0.42355924
413	46	4	0.0187	-2.1042099	0.32403718	1.0200216
414	46	5	0.398	-0.71768777	-0.55960285	-0.56693421
415	47	1	-0.097101	1.2870205	-1.7943992	1.3520421
416	47	1	0.1314	1.5523858	-0.59865446	0.45054992
417	47	2	-0.6028	0.33608066	-0.061191178	0.012762341
418	47	3	0.044367	0.69208647	-1.4798344	2.2356634
419	47	3	0.044367	2.2506625	-2.222294	1.7004529
420	47	3	0.044367	0.72724411	-2.5746362	0.79386158
421	47	4	0.0187	2.1575228	-0.92725989	-0.42355923
422	47	4	0.0187	2.1223037	0.16889674	1.0200216
423	47	5	0.398	0.56964517	0.70974308	-0.5669342
424	48	1	-0.097101	2.2078472	0.041241556	1.3520421
425	48	1	0.1314	1.3739526	0.93837258	0.45054988
426	48	2	-0.6028	0.24112372	0.2419792	0.012762297
427	48	3	0.044367	1.6111987	-0.27005918	2.2356633
428	48	3	0.044367	3.107065	0.59179327	1.7004529
429	48	3	0.044367	2.5325449	-0.86246785	0.79386153
430	48	4	0.0187	1.987952	1.250105	-0.42355927
431	48	4	0.0187	1.0654553	1.843232	1.0200216
432	48	5	0.398	-0.26105653	0.87182601	-0.56693425
433	49	1	-0.097101	2.0014099	-0.93308569	1.352042
434	49	1	0.1314	1.6465315	0.23921358	0.45054979
435	49	2	-0.6028	0.32292541	0.11141736	0.012762208
436	49	3	0.044367	1.32866	-0.95055561	2.2356632
437	49	3	0.044367	3.0510822	-0.83364847	1.7004528
438	49	3	0.044367	1.895991	-1.8875521	0.79386144
439	49	4	0.0187	2.3350572	0.24944731	-0.42355936
440	49	4	0.0187	1.7670084	1.1875946	1.0200215
441	49	5	0.398	0.14857765	0.8978618	-0.56693434
442	50	1	-0.097101	-0.4191303	2.1680913	1.3520421
443	50	1	0.1314	-1.1600223	1.1927435	0.45054988
444	50	2	-0.6028	-0.2797335	0.19607068	0.012762301
445	50	3	0.044367	-0.010152519	1.6336432	2.2356633
446	50	3	0.044367	-1.1156877	2.9596136	1.7004529
447	50	3	0.044367	0.41553615	2.6429084	0.79386154
448	50	4	0.0187	-1.5723999	1.7442115	-0.42355927
449	50	4	0.0187	-1.998599	0.73368987	1.0200216
450	50	5	0.398	-0.81416523	-0.40665209	-0.56693424
451	51	1	-0.097101	-0.16397629	2.2021358	1.3520421
452	51	1	0.1314	-1.0133381	1.3196344	0.45054988
453	51	2	-0.6028	-0.2550157	0.22729191	0.0127623
454	51	3	0.044367	0.18002766	1.6237252	2.2356633
455	51	3	0.044367	-0.76368951	3.0693405	1.7004529
456	51	3	0.044367	0.72027481	2.5765946	0.79386154
457	51	4	0.0187	-1.3587381	1.915345	-0.42355927
458	51	4	0.0187	-1.8996385	0.96128711	1.0200216
459	51	5	0.398	-0.8559567	-0.30914254	-0.56693425
460	52	1	-0.097101	-2.0775514	0.74837849	1.352042
461	52	1	0.1314	-1.6181725	-0.38704884	0.45054985
462	52	2	-0.6028	-0.31153374	-0.14014748	0.012762269
463	52	3	0.044367	-1.4091338	0.82658037	2.2356633
464	52	3	0.044367	-3.1139406	0.55447834	1.7004528
465	52	3	0.044367	-2.0588291	1.7084664	0.79386151
466	52	4	0.0187	-2.3029553	-0.45946997	-0.4235593
467	52	4	0.0187	-1.6524411	-1.3424372	1.0200216
468	52	5	0.398	-0.06682029	-0.90761561	-0.56693428
469	53	1	-0.097101	-1.4664952	-1.650964	1.352042
470	53	1	0.1314	-0.24166812	-1.6461729	0.4505498
471	53	2	-0.6028	0.014410476	-0.34130178	0.012762215
472	53	3	0.044367	-1.2908362	-1.0013168	2.2356632
473	53	3	0.044367	-1.6714062	-2.6852325	1.7004528
474	53	3	0.044367	-2.3509476	-1.2769811	0.79386145
475	53	4	0.0187	-0.42877277	-2.3088676	-0.42355936
476	53	4	0.0187	0.63264659	-2.0328446	1.0200215
477	53	5	0.398	0.81786894	-0.39915069	-0.56693433
478	54	1	-0.097101	-2.1005476	-0.68116797	1.352042
479	54	1	0.1314	-1.0419028	-1.2971998	0.45054985
480	54	2	-0.6028	-0.16038364	-0.30161507	0.012762264
481	54	3	0.044367	-1.6201355	-0.20989127	2.2356633
482	54	3	0.044367	-2.8009293	-1.4693084	1.7004528
483	54	3	0.044367	-2.6738897	0.089155452	0.7938615
484	54	4	0.0187	-1.5387913	-1.7739326	-0.42355931
485	54	4	0.0187	-0.48372748	-2.0733323	1.0200216
486	54	5	0.398	0.50318134	-0.75831358	-0.56693428
487	55	1	-0.097101	2.1554742	-0.47981363	1.3520421
488	55	1	0.1314	1.5562816	0.58845247	0.45054991
489	55	2	-0.6028	0.29132369	0.1783958	0.012762324
490	55	3	0.044367	1.5022995	-0.64186413	2.2356633
491	55	3	0.044367	3.1590479	-0.15648773	1.7004529
492	55	3	0.044367	2.2582395	-1.4345694	0.79386156
493	55	4	0.0187	2.2264209	0.74683684	-0.42355925
494	55	4	0.0187	1.469532	1.5405112	1.0200216
495	55	5	0.398	-0.048421404	0.90878287	-0.56693422
496	56	1	-0.097101	-2.0136937	-0.90627139	1.3520421
497	56	1	0.1314	-0.89415911	-1.4031281	0.45054992
498	56	2	-0.6028	-0.12652009	-0.31731256	0.012762338
499	56	3	0.044367	-1.5875654	-0.38539495	2.2356634
500	56	3	0.044367	-2.6239086	-1.7661188	1.7004529
501	56	3	0.044367	-2.6676556	-0.20309772	0.79386157
502	56	4	0.0187	-1.3360701	-1.9312256	-0.42355923
503	56	4	0.0187	-0.25463977	-2.1137308	1.0200216
504	56	5	0.398	0.58290967	-0.6988901	-0.56693421
505	57	1	-0.097101	-1.4614647	-1.6554187	1.352042
506	57	1	0.1314	-0.23665789	-1.6469007	0.45054983
507	57	2	-0.6028	0.015449022	-0.3412564	0.012762249
508	57	3	0.044367	-1.2877833	-1.00524	2.2356633
509	57	3	0.044367	-1.6632276	-2.690306	1.7004528
510	57	3	0.044367	-2.347051	-1.2841288	0.79386148
511	57	4	0.0187	-0.4217452	-2.3101616	-0.42355932
512	57	4	0.0187	0.63882936	-2.0309102	1.0200216
513	57	5	0.398	0.81907979	-0.39666025	-0.5669343
514	58	1	-0.097101	-2.0261933	-0.87797008	1.352042
515	58	1	0.1314	-0.91372966	-1.390463	0.45054983
516	58	2	-0.6028	-0.13095342	-0.31550884	0.012762249
517	58	3	0.044367	-1.5928092	-0.36311493	2.2356633
518	58	3	0.044367	-2.648395	-1.7291838	1.7004528
519	58	3	0.044367	-2.6702393	-0.16570324	0.79386149
520	58	4	0.0187	-1.3629961	-1.9123174	-0.42355932
521	58	4	0.0187	-0.28422881	-2.1099558	1.0200216
522	58	5	0.398	0.57306071	-0.70698824	-0.5669343
523	59	1	-0.097101	-1.2380611	-1.8285227	1.3520421
524	59	1	0.1314	-0.024373465	-1.6636391	0.45054992
525	59	2	-0.6028	0.058908577	-0.33648837	0.012762337
526	59	3	0.044367	-1.1488446	-1.161486	2.2356634
527	59	3	0.044367	-1.3059933	-2.8807038	1.7004529
528	59	3	0.044367	-2.1638164	-1.5733829	0.79386157
529	59	4	0.0187	-0.12323159	-2.3451077	-0.42355923
530	59	4	0.0187	0.89299013	-1.9326842	1.0200216
531	59	5	0.398	0.86303389	-0.28879677	-0.56693421
532	60	1	-0.097101	1.5663717	1.5565249	1.3520421
533	60	1	0.1314	0.3436195	1.6279479	0.45054991
534	60	2	-0.6028	0.0068520877	0.34153716	0.012762329
535	60	3	0.044367	1.3506341	0.91906524	2.2356634
536	60	3	0.044367	1.8352346	2.5760408	1.7004529
537	60	3	0.044367	2.4258426	1.1282387	0.79386157
538	60	4	0.0187	0.57159241	2.2777177	-0.42355924
539	60	4	0.0187	-0.50494389	2.0682676	1.0200216
540	60	5	0.398	-0.79145063	0.44926262	-0.56693422
541	61	1	-0.097101	1.2930436	-1.7900638	1.3520421
542	61	1	0.1314	1.554389	-0.593434	0.45054994
543	61	2	-0.6028	0.33628446	-0.060061288	0.012762357
544	61	3	0.044367	0.69705579	-1.4775001	2.2356634
545	61	3	0.044367	2.2581182	-2.2147177	1.7004529
546	61	3	0.044367	0.73589245	-2.5721775	0.79386159
547	61	4	0.0187	2.1606269	-0.92000393	-0.42355921
548	61	4	0.0187	2.1217242	0.17602815	1.0200217
549	61	5	0.398	0.56725683	0.71165354	-0.56693419
550	62	1	-0.097101	-1.5367067	-1.5858193	1.352042
551	62	1	0.1314	-0.31282401	-1.6341451	0.45054986
552	62	2	-0.6028	-0.0004030131	-0.34160567	0.012762276
553	62	3	0.044367	-1.3330422	-0.94440033	2.2356633
554	62	3	0.044367	-1.7862741	-2.6102294	1.7004529
555	62	3	0.044367	-2.4041101	-1.1738356	0.79386151
556	62	4	0.0187	-0.52848917	-2.2881029	-0.42355929
557	62	4	0.0187	0.54390102	-2.0583661	1.0200216
558	62	5	0.398	0.79979119	-0.43424062	-0.56693427
559	63	1	-0.097101	-1.9799738	-0.97774969	1.352042
560	63	1	0.1314	-0.84337657	-1.4342264	0.45054979
561	63	2	-0.6028	-0.11508437	-0.32163682	0.012762203
562	63	3	0.044367	-1.5727577	-0.44195814	2.2356632
563	63	3	0.044367	-2.5590289	-1.8588825	1.7004528
564	63	3	0.044367	-2.6586794	-0.29842797	0.79386144
565	63	4	0.0187	-1.2661069	-1.9777991	-0.42355937
566	63	4	0.0187	-0.17883837	-2.1214892	1.0200215
567	63	5	0.398	0.60754552	-0.67758351	-0.56693434
568	64	1	-0.097101	-1.2404348	1.8269133	1.3520421
569	64	1	0.1314	-1.5364721	0.6383906	0.45054995
570	64	2	-0.6028	-0.33439544	0.069816406	0.012762362
571	64	3	0.044367	-0.65378963	1.4971482	2.2356634
572	64	3	0.044367	-2.1927506	2.2794556	1.7004529
573	64	3	0.044367	-0.66077248	2.5924921	0.7938616
574	64	4	0.0187	-2.1329557	0.98245409	-0.42355921
575	64	4	0.0187	-2.1259462	-0.11424578	1.0200217
576	64	5	0.398	-0.5877145	-0.69485441	-0.56693418
577	65	1	-0.097101	0.012930822	-2.2081945	1.3520421
578	65	1	0.1314	0.92067967	-1.3858708	0.4505499
579	65	2	-0.6028	0.23886781	-0.2442064	0.012762316
580	65	3	0.044367	-0.29069455	-1.6076038	2.2356633
581	65	3	0.044367	0.55190819	-3.1143971	1.7004529
582	65	3	0.044367	-0.89486733	-2.5212789	0.79386155
583	65	4	0.0187	1.2245143	-2.0038165	-0.42355925
584	65	4	0.0187	1.8294201	-1.0890003	1.0200216
585	65	5	0.398	0.87510142	0.24985715	-0.56693423
586	66	1	-0.097101	2.0245129	-0.88183782	1.352042
587	66	1	0.1314	1.6399088	0.2810482	0.45054983
588	66	2	-0.6028	0.31998457	0.11960115	0.012762242
589	66	3	0.044367	1.3524257	-0.91642685	2.2356633
590	66	3	0.044367	3.0713139	-0.75571354	1.7004528