ITEM: TIMESTEP
0
ITEM: NUMBER OF ATOMS
30
ITEM: BOX BOUNDS pp pp pp
-7.5000000000000000e+00 7.5000000000000000e+00
-7.5000000000000000e+00 7.5000000000000000e+00
-7.5000000000000000e+00 7.5000000000000000e+00
ITEM: ATOMS id type x y z vx vy vz
1 1 0 0 0 0 0 0
2 2 0.9572 0 0 0 0 0
3 3 -0.24 0.927 0 0 0 0
4 1 3 0 0 0 0 0
5 2 3.9572 0 0 0 0 0
6 3 2.76 0.927 0 0 0 0
7 1 0 3 0 0 0 0
8 2 0.9572 3 0 0 0 0
9 3 -0.24 3.927 0 0 0 0
10 1 3 3 0 0 0 0
11 2 3.9572 3 0 0 0 0
12 3 2.76 3.927 0 0 0 0
13 1 0 0 3 0 0 0
14 2 0.9572 0 3 0 0 0
15 3 -0.24 0.927 3 0 0 0
16 1 3 0 3 0 0 0
17 2 3.9572 0 3 0 0 0
18 3 2.76 0.927 3 0 0 0
19 1 0 3 3 0 0 0
20 2 0.9572 3 3 0 0 0
21 3 -0.24 3.927 3 0 0 0
22 1 3 3 3 0 0 0
23 2 3.9572 3 3 0 0 0
24 3 2.76 3.927 3 0 0 0
25 1 1.5 1.5 1.5 0 0 0
26 2 2.4572 1.5 1.5 0 0 0
27 3 1.26 2.427 1.5 0 0 0
28 1 4.5 1.5 1.5 0 0 0
29 2 5.4572 1.5 1.5 0 0 0
30 3 4.26 2.427 1.5 0 0 0
ITEM: TIMESTEP
220
ITEM: NUMBER OF ATOMS
30
ITEM: BOX BOUNDS pp pp pp
-7.5000000000000000e+00 7.5000000000000000e+00
-7.5000000000000000e+00 7.5000000000000000e+00
-7.5000000000000000e+00 7.5000000000000000e+00
ITEM: ATOMS id type x y z vx vy vz
1 1 -0.853564 0.487662 -0.739406 0 0 0
2 2 -0.0120417 0.208202 -0.358897 0 0 0
3 3 -0.748115 1.45137 -0.739474 0 0 0
4 1 3.85574 1.45616 -0.362381 0 0 0
5 2 4.4813 1.11849 0.30198 0 0 0
6 3 3.00091 1.18848 0.0452961 0 0 0
7 1 0.101894 3.16068 -0.359306 0 0 0
8 2 0.936114 3.23875 -0.880694 0 0 0
9 3 -0.270861 4.03765 -0.473203 0 0 0
10 1 2.46896 3.38698 -1.71047 0 0 0
11 2 3.02826 2.72261 -1.24682 0 0 0
12 3 3.00308 3.57444 -2.48513 0 0 0
13 1 0.974168 0.159715 3.48285 0 0 0
14 2 0.340412 -0.483563 3.81371 0 0 0
15 3 0.515016 1.01398 3.67313 0 0 0
16 1 3.57314 1.32099 3.62334 0 0 0
17 2 4.15363 0.952614 2.93246 0 0 0
18 3 2.79898 0.727855 3.5866 0 0 0
19 1 -0.075032 2.64446 3.71336 0 0 0
20 2 0.766416 3.10082 3.94896 0 0 0
21 3 -0.636683 3.38445 3.47076 0 0 0
22 1 2.37922 3.68247 4.28139 0 0 0
23 2 2.86926 2.86099 4.04008 0 0 0
24 3 3.05095 4.17517 4.75657 0 0 0
25 1 1.48916 0.975336 0.890299 0 0 0
26 2 1.28482 0.675625 1.79946 0 0 0
27 3 0.947644 1.78142 0.805409 0 0 0
28 1 5.52569 0.504359 1.70376 0 0 0
29 2 5.96818 -0.345666 1.59835 0 0 0
30 3 6.25535 1.10748 1.88804 0 0 0
