# LAMMPS data file for 10 TIP3P water molecules
# Generated for water simulation test

30 atoms
20 bonds
10 angles
0 dihedrals
0 impropers

3 atom types
1 bond types
1 angle types

# Box dimensions (15x15x15 Angstroms)
-7.5 7.5 xlo xhi
-7.5 7.5 ylo yhi
-7.5 7.5 zlo zhi

Masses

1 15.9994    # Oxygen
2 1.008      # Hydrogen
3 1.008      # Hydrogen

Atoms # full

1 1 1 -0.830 0.000 0.000 0.000
2 1 2 0.415 0.9572 0.000 0.000
3 1 3 0.415 -0.2400 0.9270 0.000
4 2 1 -0.830 3.000 0.000 0.000
5 2 2 0.415 3.9572 0.000 0.000
6 2 3 0.415 2.7600 0.9270 0.000
7 3 1 -0.830 0.000 3.000 0.000
8 3 2 0.415 0.9572 3.000 0.000
9 3 3 0.415 -0.2400 3.9270 0.000
10 4 1 -0.830 3.000 3.000 0.000
11 4 2 0.415 3.9572 3.000 0.000
12 4 3 0.415 2.7600 3.9270 0.000
13 5 1 -0.830 0.000 0.000 3.000
14 5 2 0.415 0.9572 0.000 3.000
15 5 3 0.415 -0.2400 0.9270 3.000
16 6 1 -0.830 3.000 0.000 3.000
17 6 2 0.415 3.9572 0.000 3.000
18 6 3 0.415 2.7600 0.9270 3.000
19 7 1 -0.830 0.000 3.000 3.000
20 7 2 0.415 0.9572 3.000 3.000
21 7 3 0.415 -0.2400 3.9270 3.000
22 8 1 -0.830 3.000 3.000 3.000
23 8 2 0.415 3.9572 3.000 3.000
24 8 3 0.415 2.7600 3.9270 3.000
25 9 1 -0.830 1.500 1.500 1.500
26 9 2 0.415 2.4572 1.500 1.500
27 9 3 0.415 1.2600 2.4270 1.500
28 10 1 -0.830 4.500 1.500 1.500
29 10 2 0.415 5.4572 1.500 1.500
30 10 3 0.415 4.2600 2.4270 1.500

Bonds

1 1 1 2
2 1 1 3
3 1 4 5
4 1 4 6
5 1 7 8
6 1 7 9
7 1 10 11
8 1 10 12
9 1 13 14
10 1 13 15
11 1 16 17
12 1 16 18
13 1 19 20
14 1 19 21
15 1 22 23
16 1 22 24
17 1 25 26
18 1 25 27
19 1 28 29
20 1 28 30

Angles

1 1 2 1 3
2 1 5 4 6
3 1 8 7 9
4 1 11 10 12
5 1 14 13 15
6 1 17 16 18
7 1 20 19 21
8 1 23 22 24
9 1 26 25 27
10 1 29 28 30 