Title

450 atoms
400 bonds
650 angles
800 dihedrals
0 impropers

5 atom types
4 bond types
3 angle types
6 dihedral types
0.945 17.86963512 xlo xhi
0.951 17.87563512 ylo yhi
0.953 17.87763512 zlo zhi
0.0 0.0 0.0 xy xz yz

Masses

1	12.01078
2	15.99943
3	1.007947
4	1.007947
5	1.007947


Pair Coeffs

1	0.10884061	3.3795318
2	0.20947353	2.99716
3	0.015779483	2.6445434
4	0.016409246	2.5832257
5	1.2326e-05	0.53453923

Bond Coeffs

1	215.30139056395	1.533627603844
2	357.8191474159	1.094206460752
3	258.9527804663	1.426323519316
4	538.350794015	0.9752301008088


Angle Coeffs

1	66.75631831595	109.9380527584
2	119.8958895535	112.8736161145
3	36.776637850755	108.3543135269


Dihedral Coeffs

1 1	0.4431584714139	3	0
2 1	0.1140296769156	1	0
3 1	0.1311347012225	3	0
4 1	0.436546671918	1	0
5 1	0.2279946533057	3	0
6 1	0.3636269884643333	3	0


Atoms

1	1	1	-0.097101	3.463	15.108	9.87
2	1	1	0.1314	3.425	14.606	11.304
3	1	2	-0.6028	2.146	14.117	11.597
4	1	3	0.044367	3.225	14.279	9.17
5	1	3	0.044367	4.477	15.497	9.636
6	1	3	0.044367	2.724	15.925	9.733
7	1	4	0.0187	3.676	15.444	11.993
8	1	4	0.0187	4.177	13.796	11.428
9	1	5	0.398	2.18	13.805	12.539
10	2	1	-0.097101	6.871	5.597	7.986
11	2	1	0.1314	6.633	6.239	6.629
12	2	2	-0.6028	6.539	7.628	6.776
13	2	3	0.044367	7.817	5.978	8.426
14	2	3	0.044367	6.946	4.495	7.871
15	2	3	0.044367	6.029	5.831	8.671
16	2	4	0.0187	5.688	5.84	6.196
17	2	4	0.0187	7.478	5.986	5.951
18	2	5	0.398	6.384	7.991	5.865
19	3	1	-0.097101	14.873	6.41	13.304
20	3	1	0.1314	15.007	6.84	14.756
21	3	2	-0.6028	15.092	8.236	14.828
22	3	3	0.044367	13.954	6.851	12.861
23	3	3	0.044367	14.805	5.303	13.246
24	3	3	0.044367	15.757	6.749	12.724
25	3	4	0.0187	15.925	6.382	15.19
26	3	4	0.0187	14.12	6.485	15.326
27	3	5	0.398	15.178	8.457	15.792
28	4	1	-0.097101	9.137	4.578	12.399
29	4	1	0.1314	10.238	4.764	11.367
30	4	2	-0.6028	10.396	3.584	10.63
31	4	3	0.044367	8.178	4.337	11.892
32	4	3	0.044367	9.01	5.513	12.984
33	4	3	0.044367	9.401	3.752	13.092
34	4	4	0.0187	11.189	5.015	11.888
35	4	4	0.0187	9.964	5.601	10.687
36	4	5	0.398	11.122	3.763	9.977
37	5	1	-0.097101	4.024	5.384	3.893
38	5	1	0.1314	5.001	6.549	3.837
39	5	2	-0.6028	6.299	6.086	4.082
40	5	3	0.044367	4.29	4.629	3.123
41	5	3	0.044367	2.994	5.751	3.699
42	5	3	0.044367	4.056	4.91	4.897
43	5	4	0.0187	4.716	7.302	4.607
44	5	4	0.0187	4.95	7.02	2.831
45	5	5	0.398	6.889	6.883	4.034
46	6	1	-0.097101	2.334	13.034	14.913
47	6	1	0.1314	2.881	14.427	15.185
48	6	2	-0.6028	4.148	14.328	15.772
49	6	3	0.044367	3.011	12.489	14.222
50	6	3	0.044367	1.329	13.111	14.448
51	6	3	0.044367	2.249	12.467	15.864
52	6	4	0.0187	2.188	14.965	15.87
53	6	4	0.0187	2.951	14.986	14.226
54	6	5	0.398	4.454	15.26	15.926
55	7	1	-0.097101	14.3	10.103	12.678
56	7	1	0.1314	15.046	10.258	11.362
57	7	2	-0.6028	15.455	11.588	11.207
58	7	3	0.044367	14.964	10.378	13.526
59	7	3	0.044367	13.975	9.049	12.802
60	7	3	0.044367	13.405	10.76	12.687
61	7	4	0.0187	14.373	9.969	10.524
62	7	4	0.0187	15.934	9.587	11.364
63	7	5	0.398	15.933	11.63	10.338
64	8	1	-0.097101	11.678	7.932	15
65	8	1	0.1314	11.156	9.334	14.727
66	8	2	-0.6028	10.643	9.882	15.909
67	8	3	0.044367	12.486	7.969	15.761
68	8	3	0.044367	12.085	7.496	14.063
69	8	3	0.044367	10.856	7.285	15.371
70	8	4	0.0187	10.355	9.282	13.955
71	8	4	0.0187	11.987	9.966	14.346
72	8	5	0.398	10.318	10.79	15.672
73	9	1	-0.097101	14.687	6.836	2.77
74	9	1	0.1314	14.633	5.44	2.17
75	9	2	-0.6028	15.752	5.235	1.355
76	9	3	0.044367	15.606	6.951	3.383
77	9	3	0.044367	13.799	7	3.417
78	9	3	0.044367	14.689	7.597	1.962
79	9	4	0.0187	13.702	5.336	1.568
80	9	4	0.0187	14.62	4.689	2.992
81	9	5	0.398	15.664	4.314	0.993
82	10	1	-0.097101	8.546	11.675	6.001
83	10	1	0.1314	9.797	11.919	5.173
84	10	2	-0.6028	10.77	10.967	5.499
85	10	3	0.044367	8.143	10.661	5.791
86	10	3	0.044367	7.773	12.43	5.743
87	10	3	0.044367	8.783	11.757	7.082
88	10	4	0.0187	10.183	12.942	5.385
89	10	4	0.0187	9.542	11.844	4.092
90	10	5	0.398	11.559	11.174	4.933
91	11	1	-0.097101	14.208	2.124	1.958
92	11	1	0.1314	15.037	2.241	3.228
93	11	2	-0.6028	15.409	0.965	3.666
94	11	3	0.044367	14.803	1.628	1.161
95	11	3	0.044367	13.912	3.136	1.609
96	11	3	0.044367	13.293	1.528	2.155
97	11	4	0.0187	14.433	2.75	4.013
98	11	4	0.0187	15.945	2.849	3.017
99	11	5	0.398	15.943	1.103	4.491
100	12	1	-0.097101	7.757	13.462	10.357
101	12	1	0.1314	7.643	12.502	11.531
102	12	2	-0.6028	8.044	11.222	11.132
103	12	3	0.044367	8.809	13.507	10.004
104	12	3	0.044367	7.439	14.478	10.673
105	12	3	0.044367	7.106	13.123	9.524
106	12	4	0.0187	6.586	12.476	11.881
107	12	4	0.0187	8.291	12.861	12.361
108	12	5	0.398	7.949	10.642	11.933
109	13	1	-0.097101	3.091	6.088	7.226
110	13	1	0.1314	2.933	4.585	7.063
111	13	2	-0.6028	2.294	4.054	8.19
112	13	3	0.044367	2.093	6.565	7.334
113	13	3	0.044367	3.598	6.51	6.333
114	13	3	0.044367	3.701	6.311	8.127
115	13	4	0.0187	3.94	4.122	6.946
116	13	4	0.0187	2.33	4.377	6.152
117	13	5	0.398	2.22	3.077	8.029
118	14	1	-0.097101	7.076	1.948	15.532
119	14	1	0.1314	7.134	1.952	14.013
120	14	2	-0.6028	8.463	1.826	13.592
121	14	3	0.044367	7.49	0.995	15.925
122	14	3	0.044367	6.022	2.048	15.867
123	14	3	0.044367	7.665	2.797	15.937
124	14	4	0.0187	6.705	2.908	13.633
125	14	4	0.0187	6.531	1.103	13.621
126	14	5	0.398	8.44	1.835	12.6
127	15	1	-0.097101	2.72	8.686	4.202
128	15	1	0.1314	3.38	9.763	5.051
129	15	2	-0.6028	4.627	9.31	5.498
130	15	3	0.044367	3.357	8.454	3.322
131	15	3	0.044367	1.731	9.044	3.847
132	15	3	0.044367	2.576	7.764	4.803
133	15	4	0.0187	2.726	9.993	5.922
134	15	4	0.0187	3.508	10.683	4.439
135	15	5	0.398	5.008	10.048	6.043
136	16	1	-0.097101	14.121	12.825	14.113
137	16	1	0.1314	13.582	14.015	14.889
138	16	2	-0.6028	14.075	15.202	14.333
139	16	3	0.044367	13.8	12.887	13.051
140	16	3	0.044367	13.731	11.883	14.553
141	16	3	0.044367	15.231	12.812	14.159
142	16	4	0.0187	13.903	13.934	15.953
143	16	4	0.0187	12.47	14.009	14.844
144	16	5	0.398	13.693	15.94	14.877
145	17	1	-0.097101	11.338	11.885	9.057
146	17	1	0.1314	10.97	10.579	9.743
147	17	2	-0.6028	11.985	10.214	10.635
148	17	3	0.044367	11.46	12.689	9.813
149	17	3	0.044367	10.533	12.175	8.349
150	17	3	0.044367	12.287	11.764	8.494
151	17	4	0.0187	10.84	9.785	8.972
152	17	4	0.0187	10.012	10.711	10.293
153	17	5	0.398	11.693	9.36	11.05
154	18	1	-0.097101	9.776	1.855	8.455
155	18	1	0.1314	8.474	1.887	9.241
156	18	2	-0.6028	7.393	1.978	8.357
157	18	3	0.044367	9.789	0.975	7.777
158	18	3	0.044367	10.634	1.783	9.156
159	18	3	0.044367	9.879	2.782	7.853
160	18	4	0.0187	8.481	2.766	9.924
161	18	4	0.0187	8.391	0.957	9.847
162	18	5	0.398	6.577	1.995	8.922
163	19	1	-0.097101	1.963	3.74	12.018
164	19	1	0.1314	1.706	2.499	11.178
165	19	2	-0.6028	2.906	1.804	10.985
166	19	3	0.044367	2.376	3.45	13.008
167	19	3	0.044367	1.012	4.292	12.171
168	19	3	0.044367	2.687	4.405	11.501
169	19	4	0.0187	1.283	2.804	10.194
170	19	4	0.0187	0.972	1.848	11.703
171	19	5	0.398	2.679	1.01	10.435
172	20	1	-0.097101	1.596	6.811	10.345
173	20	1	0.1314	2.749	7.43	11.121
174	20	2	-0.6028	3.568	6.416	11.632
175	20	3	0.044367	1.989	6.204	9.501
176	20	3	0.044367	0.945	7.614	9.939
177	20	3	0.044367	0.993	6.162	11.013
178	20	4	0.0187	2.34	8.043	11.955
179	20	4	0.0187	3.337	8.086	10.441
180	20	5	0.398	4.298	6.876	12.125
181	21	1	-0.097101	4.697	3.799	10.123
182	21	1	0.1314	5.225	2.844	11.182
183	21	2	-0.6028	4.356	2.829	12.278
184	21	3	0.044367	3.692	3.47	9.783
185	21	3	0.044367	5.386	3.812	9.253
186	21	3	0.044367	4.624	4.825	10.54
187	21	4	0.0187	6.237	3.179	11.505
188	21	4	0.0187	5.304	1.823	10.746
189	21	5	0.398	4.748	2.193	12.932
190	22	1	-0.097101	11.744	8.229	5.98
191	22	1	0.1314	10.617	7.322	6.448
192	22	2	-0.6028	9.53	8.1	6.864
193	22	3	0.044367	11.4	8.854	5.128
194	22	3	0.044367	12.607	7.613	5.649
195	22	3	0.044367	12.069	8.89	6.81
196	22	4	0.0187	10.979	6.695	7.293
197	22	4	0.0187	10.309	6.659	5.609
198	22	5	0.398	8.83	7.459	7.157
199	23	1	-0.097101	8.988	7.865	9.971
200	23	1	0.1314	7.917	8.693	9.279
201	23	2	-0.6028	8.497	9.452	8.256
202	23	3	0.044367	9.469	7.18	9.241
203	23	3	0.044367	8.529	7.263	10.783
204	23	3	0.044367	9.76	8.532	10.409
205	23	4	0.0187	7.437	9.367	10.024
206	23	4	0.0187	7.146	8.012	8.855
207	23	5	0.398	7.757	9.968	7.842
208	24	1	-0.097101	1.969	13.632	4.564
209	24	1	0.1314	1.892	12.426	5.488
210	24	2	-0.6028	1.003	12.693	6.536
211	24	3	0.044367	0.966	13.85	4.14
212	24	3	0.044367	2.675	13.421	3.733
213	24	3	0.044367	2.329	14.519	5.126
214	24	4	0.0187	2.905	12.213	5.897
215	24	4	0.0187	1.54	11.544	4.909
216	24	5	0.398	0.993	11.878	7.102
217	25	1	-0.097101	11.17	2.858	15.022
218	25	1	0.1314	10.713	4.308	15.066
219	25	2	-0.6028	9.32	4.358	15.201
220	25	3	0.044367	10.879	2.34	15.961
221	25	3	0.044367	12.274	2.818	14.915
222	25	3	0.044367	10.704	2.339	14.159
223	25	4	0.0187	11.02	4.817	14.124
224	25	4	0.0187	11.196	4.818	15.929
225	25	5	0.398	9.081	5.321	15.224
226	26	1	-0.097101	4.358	15.16	6.632
227	26	1	0.1314	5.149	14.788	5.387
228	26	2	-0.6028	5.711	15.94	4.825
229	26	3	0.044367	5.029	15.636	7.379
230	26	3	0.044367	3.912	14.247	7.078
231	26	3	0.044367	3.544	15.867	6.368
232	26	4	0.0187	4.467	14.302	4.652
233	26	4	0.0187	5.953	14.071	5.665
234	26	5	0.398	6.211	15.639	4.022
235	27	1	-0.097101	14.678	1.952	11.504
236	27	1	0.1314	13.158	1.918	11.527
237	27	2	-0.6028	12.676	2.983	12.298
238	27	3	0.044367	15.03	2.909	11.06
239	27	3	0.044367	15.062	1.109	10.892
240	27	3	0.044367	15.076	1.86	12.536
241	27	4	0.0187	12.82	0.951	11.964
242	27	4	0.0187	12.774	2.001	10.486
243	27	5	0.398	11.686	2.91	12.278
244	28	1	-0.097101	10.93	12.229	13.305
245	28	1	0.1314	10.908	13.69	12.885
246	28	2	-0.6028	10.153	13.832	11.715
247	28	3	0.044367	9.895	11.874	13.498
248	28	3	0.044367	11.529	12.115	14.233
249	28	3	0.044367	11.385	11.61	12.504
250	28	4	0.0187	11.952	14.035	12.706
251	28	4	0.0187	10.459	14.298	13.702
252	28	5	0.398	10.174	14.799	11.49
253	29	1	-0.097101	8.995	10.729	1.622
254	29	1	0.1314	8.559	9.98	2.871
255	29	2	-0.6028	9.678	9.693	3.662
256	29	3	0.044367	9.492	11.682	1.904
257	29	3	0.044367	8.108	10.958	0.994
258	29	3	0.044367	9.703	10.108	1.034
259	29	4	0.0187	8.054	9.034	2.573
260	29	4	0.0187	7.842	10.61	3.444
261	29	5	0.398	9.335	9.207	4.457
262	30	1	-0.097101	8.216	5.29	1.837
263	30	1	0.1314	6.883	4.563	1.913
264	30	2	-0.6028	6.882	3.698	3.015
265	30	3	0.044367	8.379	5.884	2.762
266	30	3	0.044367	8.218	5.976	0.963
267	30	3	0.044367	9.043	4.558	1.722
268	30	4	0.0187	6.729	3.981	0.976
269	30	4	0.0187	6.064	5.309	2.017
270	30	5	0.398	5.994	3.254	3.014
271	31	1	-0.097101	13.31	8.285	8.999
272	31	1	0.1314	14.65	8.081	8.309
273	31	2	-0.6028	15.055	6.748	8.453
274	31	3	0.044367	12.544	7.623	8.542
275	31	3	0.044367	12.988	9.341	8.885
276	31	3	0.044367	13.399	8.049	10.08
277	31	4	0.0187	15.405	8.758	8.77
278	31	4	0.0187	14.548	8.331	7.23
279	31	5	0.398	15.929	6.675	7.988
280	32	1	-0.097101	1.691	10.642	10.719
281	32	1	0.1314	2.12	11.776	9.801
282	32	2	-0.6028	0.994	12.505	9.397
283	32	3	0.044367	1.185	11.053	11.618
284	32	3	0.044367	2.583	10.063	11.039
285	32	3	0.044367	0.994	9.963	10.184
286	32	4	0.0187	2.635	11.351	8.91
287	32	4	0.0187	2.826	12.441	10.346
288	32	5	0.398	1.332	13.226	8.804
289	33	1	-0.097101	6.853	14.935	14.241
290	33	1	0.1314	8.174	15.123	14.971
291	33	2	-0.6028	8.746	13.873	15.238
292	33	3	0.044367	7.023	14.403	13.28
293	33	3	0.044367	6.399	15.926	14.029
294	33	3	0.044367	6.153	14.344	14.868
295	33	4	0.0187	7.99	15.667	15.925
296	33	4	0.0187	8.86	15.726	14.336
297	33	5	0.398	9.598	14.057	15.712
298	34	1	-0.097101	12.238	14.942	5.846
299	34	1	0.1314	12.242	14.93	4.325
300	34	2	-0.6028	11.321	15.869	3.845
301	34	3	0.044367	12.522	15.95	6.219
302	34	3	0.044367	12.968	14.198	6.228
303	34	3	0.044367	11.227	14.684	6.225
304	34	4	0.0187	11.966	13.912	3.967
305	34	4	0.0187	13.263	15.18	3.96
306	34	5	0.398	11.367	15.817	2.855
307	35	1	-0.097101	11.75	14.939	8.852
308	35	1	0.1314	12.867	15.151	9.862
309	35	2	-0.6028	13.012	14.004	10.651
310	35	3	0.044367	11.991	14.076	8.195
311	35	3	0.044367	11.634	15.848	8.226
312	35	3	0.044367	10.793	14.74	9.38
313	35	4	0.0187	12.617	16.025	10.506
314	35	4	0.0187	13.815	15.36	9.319
315	35	5	0.398	13.749	14.199	11.287
316	36	1	-0.097101	5.694	5.747	15.099
317	36	1	0.1314	4.287	5.184	14.973
318	36	2	-0.6028	3.61	5.837	13.936
319	36	3	0.044367	6.251	5.592	14.15
320	36	3	0.044367	6.232	5.23	15.921
321	36	3	0.044367	5.65	6.833	15.323
322	36	4	0.0187	3.745	5.336	15.934
323	36	4	0.0187	4.347	4.094	14.759
324	36	5	0.398	2.705	5.431	13.901
325	37	1	-0.097101	7.231	2.484	5.413
326	37	1	0.1314	8.453	3.387	5.472
327	37	2	-0.6028	8.342	4.393	4.504
328	37	3	0.044367	6.312	3.076	5.611
329	37	3	0.044367	7.318	1.686	6.18
330	37	3	0.044367	7.154	2.014	4.41
331	37	4	0.0187	9.367	2.779	5.282
332	37	4	0.0187	8.523	3.842	6.484
333	37	5	0.398	9.162	4.947	4.588
334	38	1	-0.097101	11.779	3.625	4.09
335	38	1	0.1314	11.939	2.817	5.368
336	38	2	-0.6028	11.533	1.496	5.143
337	38	3	0.044367	12.405	3.187	3.283
338	38	3	0.044367	12.101	4.673	4.267
339	38	3	0.044367	10.716	3.624	3.77
340	38	4	0.0187	11.316	3.273	6.17
341	38	4	0.0187	13.006	2.836	5.682
342	38	5	0.398	11.658	1.019	6.005
343	39	1	-0.097101	5.124	11.279	15.209
344	39	1	0.1314	4.961	10.429	13.959
345	39	2	-0.6028	5.993	10.715	13.058
346	39	3	0.044367	6.099	11.058	15.694
347	39	3	0.044367	4.306	11.053	15.925
348	39	3	0.044367	5.084	12.356	14.944
349	39	4	0.0187	3.976	10.653	13.49
350	39	4	0.0187	4.992	9.353	14.242
351	39	5	0.398	5.836	10.135	12.267
352	40	1	-0.097101	8.939	2.015	2.273
353	40	1	0.1314	10.393	1.981	1.828
354	40	2	-0.6028	10.807	3.27	1.475
355	40	3	0.044367	8.827	2.684	3.153
356	40	3	0.044367	8.609	0.992	2.553
357	40	3	0.044367	8.297	2.388	1.447
358	40	4	0.0187	10.491	1.299	0.953
359	40	4	0.0187	11.021	1.595	2.661
360	40	5	0.398	11.756	3.187	1.195
361	41	1	-0.097101	8.138	7.918	13.504
362	41	1	0.1314	6.929	7.528	12.669
363	41	2	-0.6028	7.082	6.217	12.203
364	41	3	0.044367	8.234	7.235	14.375
365	41	3	0.044367	8.017	8.958	13.874
366	41	3	0.044367	9.06	7.859	12.889
367	41	4	0.0187	6.839	8.228	11.807
368	41	4	0.0187	6.012	7.603	13.295
369	41	5	0.398	6.27	6.019	11.668
370	42	1	-0.097101	14.598	1.865	7.824
371	42	1	0.1314	15.133	3.124	7.16
372	42	2	-0.6028	15.593	2.818	5.874
373	42	3	0.044367	13.757	1.45	7.229
374	42	3	0.044367	14.233	2.107	8.845
375	42	3	0.044367	15.403	1.104	7.901
376	42	4	0.0187	15.967	3.535	7.772
377	42	4	0.0187	14.319	3.881	7.101
378	42	5	0.398	15.928	3.67	5.491
379	43	1	-0.097101	15.029	11.657	7.722
380	43	1	0.1314	14.716	12.848	8.613
381	43	2	-0.6028	15.909	13.423	9.066
382	43	3	0.044367	15.627	11.985	6.845
383	43	3	0.044367	14.083	11.199	7.362
384	43	3	0.044367	15.603	10.896	8.292
385	43	4	0.0187	14.107	12.506	9.481
386	43	4	0.0187	14.131	13.596	8.032
387	43	5	0.398	15.644	14.19	9.639
388	44	1	-0.097101	12.74	5.044	8.611
389	44	1	0.1314	13.717	4.775	9.745
390	44	2	-0.6028	14.136	5.989	10.302
391	44	3	0.044367	11.853	5.591	8.996
392	44	3	0.044367	12.407	4.082	8.168
393	44	3	0.044367	13.231	5.653	7.823
394	44	4	0.0187	14.595	4.218	9.347
395	44	4	0.0187	13.215	4.155	10.521
396	44	5	0.398	14.768	5.753	11.032
397	45	1	-0.097101	10.766	6.762	3.129
398	45	1	0.1314	11.108	7.334	1.762
399	45	2	-0.6028	11.396	8.699	1.883
400	45	3	0.044367	11.626	6.89	3.82
401	45	3	0.044367	10.537	5.68	3.035
402	45	3	0.044367	9.88	7.283	3.549
403	45	4	0.0187	10.241	7.19	1.078
404	45	4	0.0187	11.989	6.796	1.35
405	45	5	0.398	11.61	9.017	0.966
406	46	1	-0.097101	8.585	15.308	5.996
407	46	1	0.1314	8.642	14.825	7.437
408	46	2	-0.6028	8.661	15.927	8.3
409	46	3	0.044367	7.665	15.91	5.833
410	46	3	0.044367	8.57	14.435	5.309
411	46	3	0.044367	9.475	15.93	5.767
412	46	4	0.0187	9.562	14.215	7.582
413	46	4	0.0187	7.75	14.194	7.647
414	46	5	0.398	8.698	15.554	9.22
415	47	1	-0.097101	14.851	12.918	2.64
416	47	1	0.1314	15.192	13.369	4.052
417	47	2	-0.6028	15.727	14.662	4.016
418	47	3	0.044367	14.103	13.606	2.192
419	47	3	0.044367	14.427	11.892	2.667
420	47	3	0.044367	15.766	12.913	2.011
421	47	4	0.0187	15.933	12.664	4.492
422	47	4	0.0187	14.268	13.358	4.672
423	47	5	0.398	15.929	14.902	4.958
424	48	1	-0.097101	15.514	9.995	4.472
425	48	1	0.1314	14.003	10.147	4.544
426	48	2	-0.6028	13.428	9.698	3.349
427	48	3	0.044367	15.781	8.927	4.322
428	48	3	0.044367	15.971	10.351	5.42
429	48	3	0.044367	15.917	10.594	3.63
430	48	4	0.0187	13.75	11.22	4.705
431	48	4	0.0187	13.615	9.55	5.399
432	48	5	0.398	12.448	9.82	3.452
433	49	1	-0.097101	5.121	10.995	9.691
434	49	1	0.1314	4.978	9.627	9.044
435	49	2	-0.6028	3.637	9.404	8.707
436	49	3	0.044367	4.79	11.786	8.984
437	49	3	0.044367	6.184	11.173	9.958
438	49	3	0.044367	4.504	11.047	10.612
439	49	4	0.0187	5.323	8.846	9.759
440	49	4	0.0187	5.61	9.587	8.129
441	49	5	0.398	3.604	8.503	8.292
442	50	1	-0.097101	4.482	12.008	1.97
443	50	1	0.1314	5.515	11.717	3.048
444	50	2	-0.6028	5.068	12.221	4.275
445	50	3	0.044367	3.516	11.523	2.229
446	50	3	0.044367	4.836	11.608	0.996
447	50	3	0.044367	4.329	13.103	1.876
448	50	4	0.0187	6.48	12.199	2.77
449	50	4	0.0187	5.666	10.617	3.123
450	50	5	0.398	5.776	12.004	4.936

Bonds

1	1	1	2
2	2	1	4
3	2	1	5
4	2	1	6
5	3	2	3
6	2	2	7
7	2	2	8
8	4	3	9
9	1	10	11
10	2	10	13
11	2	10	14
12	2	10	15
13	3	11	12
14	2	11	16
15	2	11	17
16	4	12	18
17	1	19	20
18	2	19	22
19	2	19	23
20	2	19	24
21	3	20	21
22	2	20	25
23	2	20	26
24	4	21	27
25	1	28	29
26	2	28	31
27	2	28	32
28	2	28	33
29	3	29	30
30	2	29	34
31	2	29	35
32	4	30	36
33	1	37	38
34	2	37	40
35	2	37	41
36	2	37	42
37	3	38	39
38	2	38	43
39	2	38	44
40	4	39	45
41	1	46	47
42	2	46	49
43	2	46	50
44	2	46	51
45	3	47	48
46	2	47	52
47	2	47	53
48	4	48	54
49	1	55	56
50	2	55	58
51	2	55	59
52	2	55	60
53	3	56	57
54	2	56	61
55	2	56	62
56	4	57	63
57	1	64	65
58	2	64	67
59	2	64	68
60	2	64	69
61	3	65	66
62	2	65	70
63	2	65	71
64	4	66	72
65	1	73	74
66	2	73	76
67	2	73	77
68	2	73	78
69	3	74	75
70	2	74	79
71	2	74	80
72	4	75	81
73	1	82	83
74	2	82	85
75	2	82	86
76	2	82	87
77	3	83	84
78	2	83	88
79	2	83	89
80	4	84	90
81	1	91	92
82	2	91	94
83	2	91	95
84	2	91	96
85	3	92	93
86	2	92	97
87	2	92	98
88	4	93	99
89	1	100	101
90	2	100	103
91	2	100	104
92	2	100	105
93	3	101	102
94	2	101	106
95	2	101	107
96	4	102	108
97	1	109	110
98	2	109	112
99	2	109	113
100	2	109	114
101	3	110	111
102	2	110	115
103	2	110	116
104	4	111	117
105	1	118	119
106	2	118	121
107	2	118	122
108	2	118	123
109	3	119	120
110	2	119	124
111	2	119	125
112	4	120	126
113	1	127	128
114	2	127	130
115	2	127	131
116	2	127	132
117	3	128	129
118	2	128	133
119	2	128	134
120	4	129	135
121	1	136	137
122	2	136	139
123	2	136	140
124	2	136	141
125	3	137	138
126	2	137	142
127	2	137	143
128	4	138	144
129	1	145	146
130	2	145	148
131	2	145	149
132	2	145	150
133	3	146	147
134	2	146	151
135	2	146	152
136	4	147	153
137	1	154	155
138	2	154	157
139	2	154	158
140	2	154	159
141	3	155	156
142	2	155	160
143	2	155	161
144	4	156	162
145	1	163	164
146	2	163	166
147	2	163	167
148	2	163	168
149	3	164	165
150	2	164	169
151	2	164	170
152	4	165	171
153	1	172	173
154	2	172	175
155	2	172	176
156	2	172	177
157	3	173	174
158	2	173	178
159	2	173	179
160	4	174	180
161	1	181	182
162	2	181	184
163	2	181	185
164	2	181	186
165	3	182	183
166	2	182	187
167	2	182	188
168	4	183	189
169	1	190	191
170	2	190	193
171	2	190	194
172	2	190	195
173	3	191	192
174	2	191	196
175	2	191	197
176	4	192	198
177	1	199	200
178	2	199	202
179	2	199	203
180	2	199	204
181	3	200	201
182	2	200	205
183	2	200	206
184	4	201	207
185	1	208	209
186	2	208	211
187	2	208	212
188	2	208	213
189	3	209	210
190	2	209	214
191	2	209	215
192	4	210	216
193	1	217	218
194	2	217	220
195	2	217	221
196	2	217	222
197	3	218	219
198	2	218	223
199	2	218	224
200	4	219	225
201	1	226	227
202	2	226	229
203	2	226	230
204	2	226	231
205	3	227	228
206	2	227	232
207	2	227	233
208	4	228	234
209	1	235	236
210	2	235	238
211	2	235	239
212	2	235	240
213	3	236	237
214	2	236	241
215	2	236	242
216	4	237	243
217	1	244	245
218	2	244	247
219	2	244	248
220	2	244	249
221	3	245	246
222	2	245	250
223	2	245	251
224	4	246	252
225	1	253	254
226	2	253	256
227	2	253	257
228	2	253	258
229	3	254	255
230	2	254	259
231	2	254	260
232	4	255	261
233	1	262	263
234	2	262	265
235	2	262	266
236	2	262	267
237	3	263	264
238	2	263	268
239	2	263	269
240	4	264	270
241	1	271	272
242	2	271	274
243	2	271	275
244	2	271	276
245	3	272	273
246	2	272	277
247	2	272	278
248	4	273	279
249	1	280	281
250	2	280	283
251	2	280	284
252	2	280	285
253	3	281	282
254	2	281	286
255	2	281	287
256	4	282	288
257	1	289	290
258	2	289	292
259	2	289	293
260	2	289	294
261	3	290	291
262	2	290	295
263	2	290	296
264	4	291	297
265	1	298	299
266	2	298	301
267	2	298	302
268	2	298	303
269	3	299	300
270	2	299	304
271	2	299	305
272	4	300	306
273	1	307	308
274	2	307	310
275	2	307	311
276	2	307	312
277	3	308	309
278	2	308	313
279	2	308	314
280	4	309	315
281	1	316	317
282	2	316	319
283	2	316	320
284	2	316	321
285	3	317	318
286	2	317	322
287	2	317	323
288	4	318	324
289	1	325	326
290	2	325	328
291	2	325	329
292	2	325	330
293	3	326	327
294	2	326	331
295	2	326	332
296	4	327	333
297	1	334	335
298	2	334	337
299	2	334	338
300	2	334	339
301	3	335	336
302	2	335	340
303	2	335	341
304	4	336	342
305	1	343	344
306	2	343	346
307	2	343	347
308	2	343	348
309	3	344	345
310	2	344	349
311	2	344	350
312	4	345	351
313	1	352	353
314	2	352	355
315	2	352	356
316	2	352	357
317	3	353	354
318	2	353	358
319	2	353	359
320	4	354	360
321	1	361	362
322	2	361	364
323	2	361	365
324	2	361	366
325	3	362	363
326	2	362	367
327	2	362	368
328	4	363	369
329	1	370	371
330	2	370	373
331	2	370	374
332	2	370	375
333	3	371	372
334	2	371	376
335	2	371	377
336	4	372	378
337	1	379	380
338	2	379	382
339	2	379	383
340	2	379	384
341	3	380	381
342	2	380	385
343	2	380	386
344	4	381	387
345	1	388	389
346	2	388	391
347	2	388	392
348	2	388	393
349	3	389	390
350	2	389	394
351	2	389	395
352	4	390	396
353	1	397	398
354	2	397	400
355	2	397	401
356	2	397	402
357	3	398	399
358	2	398	403
359	2	398	404
360	4	399	405
361	1	406	407
362	2	406	409
363	2	406	410
364	2	406	411
365	3	407	408
366	2	407	412
367	2	407	413
368	4	408	414
369	1	415	416
370	2	415	418
371	2	415	419
372	2	415	420
373	3	416	417
374	2	416	421
375	2	416	422
376	4	417	423
377	1	424	425
378	2	424	427
379	2	424	428
380	2	424	429
381	3	425	426
382	2	425	430
383	2	425	431
384	4	426	432
385	1	433	434
386	2	433	436
387	2	433	437
388	2	433	438
389	3	434	435
390	2	434	439
391	2	434	440
392	4	435	441
393	1	442	443
394	2	442	445
395	2	442	446
396	2	442	447
397	3	443	444
398	2	443	448
399	2	443	449
400	4	444	450

Angles

1	1	1	2	3
2	1	1	2	7
3	1	1	2	8
4	1	2	1	4
5	1	2	1	5
6	1	2	1	6
7	2	2	3	9
8	1	3	2	7
9	1	3	2	8
10	3	4	1	5
11	3	4	1	6
12	3	5	1	6
13	3	7	2	8
14	1	10	11	12
15	1	10	11	16
16	1	10	11	17
17	1	11	10	13
18	1	11	10	14
19	1	11	10	15
20	2	11	12	18
21	1	12	11	16
22	1	12	11	17
23	3	13	10	14
24	3	13	10	15
25	3	14	10	15
26	3	16	11	17
27	1	19	20	21
28	1	19	20	25
29	1	19	20	26
30	1	20	19	22
31	1	20	19	23
32	1	20	19	24
33	2	20	21	27
34	1	21	20	25
35	1	21	20	26
36	3	22	19	23
37	3	22	19	24
38	3	23	19	24
39	3	25	20	26
40	1	28	29	30
41	1	28	29	34
42	1	28	29	35
43	1	29	28	31
44	1	29	28	32
45	1	29	28	33
46	2	29	30	36
47	1	30	29	34
48	1	30	29	35
49	3	31	28	32
50	3	31	28	33
51	3	32	28	33
52	3	34	29	35
53	1	37	38	39
54	1	37	38	43
55	1	37	38	44
56	1	38	37	40
57	1	38	37	41
58	1	38	37	42
59	2	38	39	45
60	1	39	38	43
61	1	39	38	44
62	3	40	37	41
63	3	40	37	42
64	3	41	37	42
65	3	43	38	44
66	1	46	47	48
67	1	46	47	52
68	1	46	47	53
69	1	47	46	49
70	1	47	46	50
71	1	47	46	51
72	2	47	48	54
73	1	48	47	52
74	1	48	47	53
75	3	49	46	50
76	3	49	46	51
77	3	50	46	51
78	3	52	47	53
79	1	55	56	57
80	1	55	56	61
81	1	55	56	62
82	1	56	55	58
83	1	56	55	59
84	1	56	55	60
85	2	56	57	63
86	1	57	56	61
87	1	57	56	62
88	3	58	55	59
89	3	58	55	60
90	3	59	55	60
91	3	61	56	62
92	1	64	65	66
93	1	64	65	70
94	1	64	65	71
95	1	65	64	67
96	1	65	64	68
97	1	65	64	69
98	2	65	66	72
99	1	66	65	70
100	1	66	65	71
101	3	67	64	68
102	3	67	64	69
103	3	68	64	69
104	3	70	65	71
105	1	73	74	75
106	1	73	74	79
107	1	73	74	80
108	1	74	73	76
109	1	74	73	77
110	1	74	73	78
111	2	74	75	81
112	1	75	74	79
113	1	75	74	80
114	3	76	73	77
115	3	76	73	78
116	3	77	73	78
117	3	79	74	80
118	1	82	83	84
119	1	82	83	88
120	1	82	83	89
121	1	83	82	85
122	1	83	82	86
123	1	83	82	87
124	2	83	84	90
125	1	84	83	88
126	1	84	83	89
127	3	85	82	86
128	3	85	82	87
129	3	86	82	87
130	3	88	83	89
131	1	91	92	93
132	1	91	92	97
133	1	91	92	98
134	1	92	91	94
135	1	92	91	95
136	1	92	91	96
137	2	92	93	99
138	1	93	92	97
139	1	93	92	98
140	3	94	91	95
141	3	94	91	96
142	3	95	91	96
143	3	97	92	98
144	1	100	101	102
145	1	100	101	106
146	1	100	101	107
147	1	101	100	103
148	1	101	100	104
149	1	101	100	105
150	2	101	102	108
151	1	102	101	106
152	1	102	101	107
153	3	103	100	104
154	3	103	100	105
155	3	104	100	105
156	3	106	101	107
157	1	109	110	111
158	1	109	110	115
159	1	109	110	116
160	1	110	109	112
161	1	110	109	113
162	1	110	109	114
163	2	110	111	117
164	1	111	110	115
165	1	111	110	116
166	3	112	109	113
167	3	112	109	114
168	3	113	109	114
169	3	115	110	116
170	1	118	119	120
171	1	118	119	124
172	1	118	119	125
173	1	119	118	121
174	1	119	118	122
175	1	119	118	123
176	2	119	120	126
177	1	120	119	124
178	1	120	119	125
179	3	121	118	122
180	3	121	118	123
181	3	122	118	123
182	3	124	119	125
183	1	127	128	129
184	1	127	128	133
185	1	127	128	134
186	1	128	127	130
187	1	128	127	131
188	1	128	127	132
189	2	128	129	135
190	1	129	128	133
191	1	129	128	134
192	3	130	127	131
193	3	130	127	132
194	3	131	127	132
195	3	133	128	134
196	1	136	137	138
197	1	136	137	142
198	1	136	137	143
199	1	137	136	139
200	1	137	136	140
201	1	137	136	141
202	2	137	138	144
203	1	138	137	142
204	1	138	137	143
205	3	139	136	140
206	3	139	136	141
207	3	140	136	141
208	3	142	137	143
209	1	145	146	147
210	1	145	146	151
211	1	145	146	152
212	1	146	145	148
213	1	146	145	149
214	1	146	145	150
215	2	146	147	153
216	1	147	146	151
217	1	147	146	152
218	3	148	145	149
219	3	148	145	150
220	3	149	145	150
221	3	151	146	152
222	1	154	155	156
223	1	154	155	160
224	1	154	155	161
225	1	155	154	157
226	1	155	154	158
227	1	155	154	159
228	2	155	156	162
229	1	156	155	160
230	1	156	155	161
231	3	157	154	158
232	3	157	154	159
233	3	158	154	159
234	3	160	155	161
235	1	163	164	165
236	1	163	164	169
237	1	163	164	170
238	1	164	163	166
239	1	164	163	167
240	1	164	163	168
241	2	164	165	171
242	1	165	164	169
243	1	165	164	170
244	3	166	163	167
245	3	166	163	168
246	3	167	163	168
247	3	169	164	170
248	1	172	173	174
249	1	172	173	178
250	1	172	173	179
251	1	173	172	175
252	1	173	172	176
253	1	173	172	177
254	2	173	174	180
255	1	174	173	178
256	1	174	173	179
257	3	175	172	176
258	3	175	172	177
259	3	176	172	177
260	3	178	173	179
261	1	181	182	183
262	1	181	182	187
263	1	181	182	188
264	1	182	181	184
265	1	182	181	185
266	1	182	181	186
267	2	182	183	189
268	1	183	182	187
269	1	183	182	188
270	3	184	181	185
271	3	184	181	186
272	3	185	181	186
273	3	187	182	188
274	1	190	191	192
275	1	190	191	196
276	1	190	191	197
277	1	191	190	193
278	1	191	190	194
279	1	191	190	195
280	2	191	192	198
281	1	192	191	196
282	1	192	191	197
283	3	193	190	194
284	3	193	190	195
285	3	194	190	195
286	3	196	191	197
287	1	199	200	201
288	1	199	200	205
289	1	199	200	206
290	1	200	199	202
291	1	200	199	203
292	1	200	199	204
293	2	200	201	207
294	1	201	200	205
295	1	201	200	206
296	3	202	199	203
297	3	202	199	204
298	3	203	199	204
299	3	205	200	206
300	1	208	209	210
301	1	208	209	214
302	1	208	209	215
303	1	209	208	211
304	1	209	208	212
305	1	209	208	213
306	2	209	210	216
307	1	210	209	214
308	1	210	209	215
309	3	211	208	212
310	3	211	208	213
311	3	212	208	213
312	3	214	209	215
313	1	217	218	219
314	1	217	218	223
315	1	217	218	224
316	1	218	217	220
317	1	218	217	221
318	1	218	217	222
319	2	218	219	225
320	1	219	218	223
321	1	219	218	224
322	3	220	217	221
323	3	220	217	222
324	3	221	217	222
325	3	223	218	224
326	1	226	227	228
327	1	226	227	232
328	1	226	227	233
329	1	227	226	229
330	1	227	226	230
331	1	227	226	231
332	2	227	228	234
333	1	228	227	232
334	1	228	227	233
335	3	229	226	230
336	3	229	226	231
337	3	230	226	231
338	3	232	227	233
339	1	235	236	237
340	1	235	236	241
341	1	235	236	242
342	1	236	235	238
343	1	236	235	239
344	1	236	235	240
345	2	236	237	243
346	1	237	236	241
347	1	237	236	242
348	3	238	235	239
349	3	238	235	240
350	3	239	235	240
351	3	241	236	242
352	1	244	245	246
353	1	244	245	250
354	1	244	245	251
355	1	245	244	247
356	1	245	244	248
357	1	245	244	249
358	2	245	246	252
359	1	246	245	250
360	1	246	245	251
361	3	247	244	248
362	3	247	244	249
363	3	248	244	249
364	3	250	245	251
365	1	253	254	255
366	1	253	254	259
367	1	253	254	260
368	1	254	253	256
369	1	254	253	257
370	1	254	253	258
371	2	254	255	261
372	1	255	254	259
373	1	255	254	260
374	3	256	253	257
375	3	256	253	258
376	3	257	253	258
377	3	259	254	260
378	1	262	263	264
379	1	262	263	268
380	1	262	263	269
381	1	263	262	265
382	1	263	262	266
383	1	263	262	267
384	2	263	264	270
385	1	264	263	268
386	1	264	263	269
387	3	265	262	266
388	3	265	262	267
389	3	266	262	267
390	3	268	263	269
391	1	271	272	273
392	1	271	272	277
393	1	271	272	278
394	1	272	271	274
395	1	272	271	275
396	1	272	271	276
397	2	272	273	279
398	1	273	272	277
399	1	273	272	278
400	3	274	271	275
401	3	274	271	276
402	3	275	271	276
403	3	277	272	278
404	1	280	281	282
405	1	280	281	286
406	1	280	281	287
407	1	281	280	283
408	1	281	280	284
409	1	281	280	285
410	2	281	282	288
411	1	282	281	286
412	1	282	281	287
413	3	283	280	284
414	3	283	280	285
415	3	284	280	285
416	3	286	281	287
417	1	289	290	291
418	1	289	290	295
419	1	289	290	296
420	1	290	289	292
421	1	290	289	293
422	1	290	289	294
423	2	290	291	297
424	1	291	290	295
425	1	291	290	296
426	3	292	289	293
427	3	292	289	294
428	3	293	289	294
429	3	295	290	296
430	1	298	299	300
431	1	298	299	304
432	1	298	299	305
433	1	299	298	301
434	1	299	298	302
435	1	299	298	303
436	2	299	300	306
437	1	300	299	304
438	1	300	299	305
439	3	301	298	302
440	3	301	298	303
441	3	302	298	303
442	3	304	299	305
443	1	307	308	309
444	1	307	308	313
445	1	307	308	314
446	1	308	307	310
447	1	308	307	311
448	1	308	307	312
449	2	308	309	315
450	1	309	308	313
451	1	309	308	314
452	3	310	307	311
453	3	310	307	312
454	3	311	307	312
455	3	313	308	314
456	1	316	317	318
457	1	316	317	322
458	1	316	317	323
459	1	317	316	319
460	1	317	316	320
461	1	317	316	321
462	2	317	318	324
463	1	318	317	322
464	1	318	317	323
465	3	319	316	320
466	3	319	316	321
467	3	320	316	321
468	3	322	317	323
469	1	325	326	327