Title

900 atoms
800 bonds
1300 angles
1600 dihedrals
0 impropers

5 atom types
4 bond types
3 angle types
6 dihedral types
0.902 22.22570405 xlo xhi
0.953 22.27670405 ylo yhi
0.943 22.26670405 zlo zhi
0.0 0.0 0.0 xy xz yz

Masses

1	12.01078
2	15.99943
3	1.007947
4	1.007947
5	1.007947


Pair Coeffs

1	0.10884061	3.3795318
2	0.20947353	2.99716
3	0.015779483	2.6445434
4	0.016409246	2.5832257
5	1.2326e-05	0.53453923

Bond Coeffs

1	215.30139056395	1.533627603844
2	357.8191474159	1.094206460752
3	258.9527804663	1.426323519316
4	538.350794015	0.9752301008088


Angle Coeffs

1	66.75631831595	109.9380527584
2	119.8958895535	112.8736161145
3	36.776637850755	108.3543135269


Dihedral Coeffs

1 1	0.4431584714139	3	0
2 1	0.1140296769156	1	0
3 1	0.1311347012225	3	0
4 1	0.436546671918	1	0
5 1	0.2279946533057	3	0
6 1	0.3636269884643333	3	0


Atoms

1	1	1	-0.097101	10.212	1.881	18.409
2	1	1	0.1314	10.371	1.883	16.896
3	1	2	-0.6028	9.754	3.019	16.36
4	1	3	0.044367	10.687	2.788	18.841
5	1	3	0.044367	10.701	0.98	18.835
6	1	3	0.044367	9.135	1.869	18.678
7	1	4	0.0187	9.9	0.964	16.478
8	1	4	0.0187	11.454	1.884	16.642
9	1	5	0.398	9.888	2.967	15.378
10	2	1	-0.097101	2.399	2.072	2.197
11	2	1	0.1314	2.588	3.581	2.237
12	2	2	-0.6028	1.342	4.207	2.364
13	2	3	0.044367	1.913	1.725	3.135
14	2	3	0.044367	3.386	1.574	2.097
15	2	3	0.044367	1.763	1.792	1.331
16	2	4	0.0187	3.085	3.912	1.297
17	2	4	0.0187	3.235	3.845	3.103
18	2	5	0.398	1.527	5.183	2.384
19	3	1	-0.097101	10.613	12.115	5.851
20	3	1	0.1314	11.853	11.602	5.135
21	3	2	-0.6028	12.187	10.334	5.625
22	3	3	0.044367	9.761	11.425	5.676
23	3	3	0.044367	10.348	13.121	5.463
24	3	3	0.044367	10.807	12.189	6.941
25	3	4	0.0187	12.696	12.309	5.31
26	3	4	0.0187	11.648	11.544	4.043
27	3	5	0.398	12.998	10.051	5.126
28	4	1	-0.097101	10.592	14.12	18.208
29	4	1	0.1314	9.766	13.37	17.175
30	4	2	-0.6028	10.495	12.275	16.696
31	4	3	0.044367	10.836	13.448	19.059
32	4	3	0.044367	10.015	14.989	18.589
33	4	3	0.044367	11.534	14.486	17.75
34	4	4	0.0187	9.52	14.058	16.334
35	4	4	0.0187	8.821	13.019	17.646
36	4	5	0.398	9.911	11.826	16.029
37	5	1	-0.097101	7.195	2.483	5.827
38	5	1	0.1314	5.857	2.056	5.243
39	5	2	-0.6028	5.652	2.7	4.017
40	5	3	0.044367	8.017	2.208	5.133
41	5	3	0.044367	7.358	1.973	6.8
42	5	3	0.044367	7.205	3.581	5.99
43	5	4	0.0187	5.044	2.327	5.954
44	5	4	0.0187	5.858	0.953	5.096
45	5	5	0.398	4.771	2.386	3.686
46	6	1	-0.097101	16.735	3.387	5.61
47	6	1	0.1314	16.296	3.818	4.219
48	6	2	-0.6028	17.042	3.128	3.256
49	6	3	0.044367	16.57	2.296	5.739
50	6	3	0.044367	16.144	3.934	6.375
51	6	3	0.044367	17.812	3.614	5.756
52	6	4	0.0187	16.456	4.914	4.108
53	6	4	0.0187	15.214	3.594	4.092
54	6	5	0.398	16.715	3.447	2.375
55	7	1	-0.097101	8.385	4.035	19.135
56	7	1	0.1314	7.947	5.461	19.433
57	7	2	-0.6028	9.075	6.277	19.582
58	7	3	0.044367	8.977	4.008	18.195
59	7	3	0.044367	7.491	3.387	19.016
60	7	3	0.044367	9.004	3.645	19.969
61	7	4	0.0187	7.346	5.47	20.37
62	7	4	0.0187	7.319	5.833	18.594
63	7	5	0.398	8.731	7.188	19.774
64	8	1	-0.097101	13.401	8.12	2.1
65	8	1	0.1314	11.993	8.243	2.661
66	8	2	-0.6028	11.8	9.532	3.17
67	8	3	0.044367	13.55	8.858	1.283
68	8	3	0.044367	13.555	7.098	1.696
69	8	3	0.044367	14.147	8.307	2.902
70	8	4	0.0187	11.855	7.491	3.471
71	8	4	0.0187	11.258	8.042	1.85
72	8	5	0.398	10.871	9.553	3.52
73	9	1	-0.097101	11.769	9.39	9.493
74	9	1	0.1314	12.095	9.952	8.118
75	9	2	-0.6028	12.768	11.172	8.255
76	9	3	0.044367	12.706	9.223	10.066
77	9	3	0.044367	11.235	8.423	9.385
78	9	3	0.044367	11.121	10.1	10.049
79	9	4	0.0187	11.148	10.104	7.551
80	9	4	0.0187	12.735	9.226	7.568
81	9	5	0.398	12.953	11.489	7.333
82	10	1	-0.097101	5.394	4.337	7.613
83	10	1	0.1314	4.864	4.811	8.957
84	10	2	-0.6028	5.92	4.91	9.87
85	10	3	0.044367	6.141	5.061	7.223
86	10	3	0.044367	4.557	4.257	6.887
87	10	3	0.044367	5.872	3.341	7.722
88	10	4	0.0187	4.109	4.082	9.33
89	10	4	0.0187	4.378	5.803	8.829
90	10	5	0.398	5.518	5.221	10.723
91	11	1	-0.097101	8.829	19.617	1.631
92	11	1	0.1314	9.343	18.319	2.232
93	11	2	-0.6028	10.466	18.58	3.026
94	11	3	0.044367	8.543	20.324	2.44
95	11	3	0.044367	7.938	19.411	1.001
96	11	3	0.044367	9.616	20.082	1.001
97	11	4	0.0187	9.614	17.617	1.411
98	11	4	0.0187	8.54	17.859	2.851
99	11	5	0.398	10.756	17.703	3.389
100	12	1	-0.097101	11.023	5.823	13.44
101	12	1	0.1314	11.108	6.642	12.162
102	12	2	-0.6028	9.933	7.387	12.003
103	12	3	0.044367	10.901	6.497	14.316
104	12	3	0.044367	11.955	5.232	13.568
105	12	3	0.044367	10.159	5.128	13.39
106	12	4	0.0187	11.241	5.955	11.296
107	12	4	0.0187	11.984	7.325	12.222
108	12	5	0.398	10.044	7.898	11.158
109	13	1	-0.097101	17.513	8.534	15.342
110	13	1	0.1314	17.753	7.218	14.619
111	13	2	-0.6028	19.116	6.898	14.665
112	13	3	0.044367	17.829	8.447	16.404
113	13	3	0.044367	16.433	8.789	15.307
114	13	3	0.044367	18.092	9.347	14.855
115	13	4	0.0187	17.423	7.317	13.56
116	13	4	0.0187	17.16	6.417	15.112
117	13	5	0.398	19.212	6.037	14.181
118	14	1	-0.097101	14.919	13.415	3.708
119	14	1	0.1314	15.475	12.441	4.735
120	14	2	-0.6028	14.8	11.218	4.638
121	14	3	0.044367	15.056	13.006	2.684
122	14	3	0.044367	15.454	14.385	3.784
123	14	3	0.044367	13.837	13.584	3.892
124	14	4	0.0187	15.341	12.868	5.754
125	14	4	0.0187	16.561	12.29	4.544
126	14	5	0.398	15.202	10.627	5.326
127	15	1	-0.097101	19.376	10.476	17.477
128	15	1	0.1314	19.509	9.075	18.053
129	15	2	-0.6028	19.917	8.191	17.047
130	15	3	0.044367	20.354	10.815	17.073
131	15	3	0.044367	19.052	11.179	18.274
132	15	3	0.044367	18.622	10.483	16.662
133	15	4	0.0187	18.525	8.753	18.463
134	15	4	0.0187	20.259	9.087	18.874
135	15	5	0.398	19.986	7.299	17.477
136	16	1	-0.097101	7.565	11.4	11
137	16	1	0.1314	7.335	11.385	9.497
138	16	2	-0.6028	8.566	11.327	8.833
139	16	3	0.044367	8.101	10.478	11.311
140	16	3	0.044367	6.589	11.446	11.527
141	16	3	0.044367	8.17	12.287	11.283
142	16	4	0.0187	6.788	12.309	9.201
143	16	4	0.0187	6.719	10.497	9.23
144	16	5	0.398	8.355	11.32	7.863
145	17	1	-0.097101	12.529	10.781	18.408
146	17	1	0.1314	13.326	11.302	17.222
147	17	2	-0.6028	14.413	12.054	17.68
148	17	3	0.044367	13.173	10.135	19.043
149	17	3	0.044367	11.666	10.183	18.046
150	17	3	0.044367	12.151	11.63	19.015
151	17	4	0.0187	12.665	11.937	16.589
152	17	4	0.0187	13.688	10.441	16.618
153	17	5	0.398	14.893	12.367	16.869
154	18	1	-0.097101	12.471	18.651	14.201
155	18	1	0.1314	11.216	18.02	13.618
156	18	2	-0.6028	11.22	18.167	12.226
157	18	3	0.044367	13.374	18.153	13.788
158	18	3	0.044367	12.469	18.534	15.306
159	18	3	0.044367	12.504	19.732	13.953
160	18	4	0.0187	10.32	18.521	14.05
161	18	4	0.0187	11.192	16.94	13.885
162	18	5	0.398	10.384	17.741	11.902
163	19	1	-0.097101	11.339	7.552	17.53
164	19	1	0.1314	11.041	6.095	17.847
165	19	2	-0.6028	11.292	5.847	19.202
166	19	3	0.044367	10.691	8.214	18.144
167	19	3	0.044367	11.14	7.749	16.456
168	19	3	0.044367	12.404	7.778	17.748
169	19	4	0.0187	11.689	5.443	17.217
170	19	4	0.0187	9.974	5.88	17.614
171	19	5	0.398	11.082	4.888	19.35
172	20	1	-0.097101	3.332	12.019	10.174
173	20	1	0.1314	2.005	12.758	10.245
174	20	2	-0.6028	2.238	14.134	10.354
175	20	3	0.044367	3.909	12.358	9.288
176	20	3	0.044367	3.147	10.927	10.088
177	20	3	0.044367	3.924	12.213	11.093
178	20	4	0.0187	1.433	12.4	11.131
179	20	4	0.0187	1.418	12.545	9.324
180	20	5	0.398	1.344	14.562	10.396
181	21	1	-0.097101	15.681	10.976	13.153
182	21	1	0.1314	15.626	12.212	14.037
183	21	2	-0.6028	16.632	12.142	15.008
184	21	3	0.044367	16.669	10.915	12.647
185	21	3	0.044367	14.884	11.031	12.382
186	21	3	0.044367	15.528	10.063	13.767
187	21	4	0.0187	14.628	12.266	14.528
188	21	4	0.0187	15.77	13.118	13.407
189	21	5	0.398	16.547	12.968	15.551
190	22	1	-0.097101	1.965	11.605	6.991
191	22	1	0.1314	2.052	13.076	6.614
192	22	2	-0.6028	1.008	13.399	5.739
193	22	3	0.044367	0.996	11.4	7.495
194	22	3	0.044367	2.793	11.347	7.685
195	22	3	0.044367	2.046	10.974	6.082
196	22	4	0.0187	3.032	13.269	6.121
197	22	4	0.0187	1.981	13.695	7.535
198	22	5	0.398	1.115	14.364	5.528
199	23	1	-0.097101	11.627	11.016	14.214
200	23	1	0.1314	12.133	10.206	13.031
201	23	2	-0.6028	13.406	9.698	13.318
202	23	3	0.044367	11.563	10.37	15.116
203	23	3	0.044367	10.618	11.419	13.988
204	23	3	0.044367	12.317	11.862	14.418
205	23	4	0.0187	12.181	10.863	12.132
206	23	4	0.0187	11.427	9.369	12.831
207	23	5	0.398	13.683	9.182	12.516
208	24	1	-0.097101	3.895	5.795	13.153
209	24	1	0.1314	4.972	4.724	13.225
210	24	2	-0.6028	6.198	5.262	12.814
211	24	3	0.044367	4.159	6.644	13.819
212	24	3	0.044367	2.922	5.37	13.479
213	24	3	0.044367	3.796	6.165	12.111
214	24	4	0.0187	4.69	3.876	12.561
215	24	4	0.0187	5.052	4.356	14.272
216	24	5	0.398	6.858	4.524	12.881
217	25	1	-0.097101	10.4	1.605	5.619
218	25	1	0.1314	10.76	3.07	5.43
219	25	2	-0.6028	11.707	3.193	4.406
220	25	3	0.044367	9.971	1.195	4.68
221	25	3	0.044367	9.648	1.506	6.431
222	25	3	0.044367	11.305	1.023	5.893
223	25	4	0.0187	11.177	3.47	6.382
224	25	4	0.0187	9.842	3.642	5.167
225	25	5	0.398	11.903	4.163	4.328
226	26	1	-0.097101	9.555	5.513	9.493
227	26	1	0.1314	8.287	5.636	8.662
228	26	2	-0.6028	7.47	6.64	9.197
229	26	3	0.044367	10.111	6.475	9.483
230	26	3	0.044367	10.204	4.717	9.07
231	26	3	0.044367	9.298	5.25	10.54
232	26	4	0.0187	7.747	4.662	8.672
233	26	4	0.0187	8.56	5.889	7.613
234	26	5	0.398	6.664	6.675	8.618
235	27	1	-0.097101	1.873	10.071	14.503
236	27	1	0.1314	1.716	11.399	13.778
237	27	2	-0.6028	1.29	12.38	14.681
238	27	3	0.044367	2.627	10.168	15.314
239	27	3	0.044367	2.211	9.292	13.788
240	27	3	0.044367	0.902	9.761	14.943
241	27	4	0.0187	0.966	11.284	12.963
242	27	4	0.0187	2.693	11.691	13.335
243	27	5	0.398	1.205	13.218	14.156
244	28	1	-0.097101	5.033	15.144	10.461
245	28	1	0.1314	6.492	14.861	10.137
246	28	2	-0.6028	7.242	16.034	10.287
247	28	3	0.044367	4.94	15.501	11.509
248	28	3	0.044367	4.437	14.215	10.343
249	28	3	0.044367	4.634	15.919	9.774
250	28	4	0.0187	6.569	14.494	9.088
251	28	4	0.0187	6.874	14.076	10.826
252	28	5	0.398	8.179	15.791	10.063
253	29	1	-0.097101	2.976	15.538	18.218
254	29	1	0.1314	2.393	14.785	19.403
255	29	2	-0.6028	3.052	13.558	19.55
256	29	3	0.044367	4.058	15.727	18.383
257	29	3	0.044367	2.454	16.511	18.099
258	29	3	0.044367	2.847	14.944	17.289
259	29	4	0.0187	1.307	14.612	19.228
260	29	4	0.0187	2.52	15.396	20.323
261	29	5	0.398	2.632	13.113	20.333
262	30	1	-0.097101	1.965	8.673	11.523
263	30	1	0.1314	1.781	8.378	10.043
264	30	2	-0.6028	1.399	9.548	9.374
265	30	3	0.044367	2.754	9.443	11.662
266	30	3	0.044367	2.268	7.747	12.055
267	30	3	0.044367	1.013	9.044	11.958
268	30	4	0.0187	0.996	7.598	9.92
269	30	4	0.0187	2.74	7.998	9.624
270	30	5	0.398	1.295	9.297	8.419
271	31	1	-0.097101	17.523	11.906	1.955
272	31	1	0.1314	16.281	11.064	1.711
273	31	2	-0.6028	16.651	9.823	1.178
274	31	3	0.044367	18.196	11.391	2.674
275	31	3	0.044367	17.231	12.891	2.377
276	31	3	0.044367	18.065	12.07	1
277	31	4	0.0187	15.612	11.597	0.998
278	31	4	0.0187	15.743	10.917	2.674
279	31	5	0.398	15.807	9.32	1.041
280	32	1	-0.097101	2.028	1.76	19.417
281	32	1	0.1314	1.97	1.965	17.911
282	32	2	-0.6028	0.998	2.925	17.605
283	32	3	0.044367	2.291	2.715	19.92
284	32	3	0.044367	2.799	0.999	19.661
285	32	3	0.044367	1.044	1.409	19.791
286	32	4	0.0187	1.717	0.999	17.42
287	32	4	0.0187	2.966	2.306	17.55
288	32	5	0.398	1.005	3.016	16.616
289	33	1	-0.097101	6.534	19.067	17.781
290	33	1	0.1314	7.418	19.51	16.626
291	33	2	-0.6028	6.626	20.073	15.617
292	33	3	0.044367	5.986	19.94	18.197
293	33	3	0.044367	7.16	18.62	18.582
294	33	3	0.044367	5.802	18.309	17.431
295	33	4	0.0187	7.968	18.628	16.227
296	33	4	0.0187	8.152	20.26	16.994
297	33	5	0.398	7.252	20.341	14.895
298	34	1	-0.097101	15.24	15.181	10.75
299	34	1	0.1314	16.642	15.359	10.19
300	34	2	-0.6028	16.858	16.707	9.881
301	34	3	0.044367	15.121	15.786	11.674
302	34	3	0.044367	15.068	14.111	10.995
303	34	3	0.044367	14.487	15.505	10.001
304	34	4	0.0187	16.75	14.738	9.271
305	34	4	0.0187	17.384	15.02	10.947
306	34	5	0.398	17.782	16.762	9.522
307	35	1	-0.097101	11.917	15.521	6.824
308	35	1	0.1314	12.573	16.111	5.586
309	35	2	-0.6028	13.689	16.868	5.96
310	35	3	0.044367	12.636	14.864	7.358
311	35	3	0.044367	11.031	14.921	6.528
312	35	3	0.044367	11.59	16.335	7.505
313	35	4	0.0187	11.838	16.758	5.055
314	35	4	0.0187	12.885	15.286	4.908
315	35	5	0.398	14.074	17.226	5.118
316	36	1	-0.097101	1.963	17.111	9.609
317	36	1	0.1314	1.676	16.446	8.272
318	36	2	-0.6028	2.882	16.101	7.65
319	36	3	0.044367	2.524	16.414	10.268
320	36	3	0.044367	1.008	17.385	10.103
321	36	3	0.044367	2.566	18.031	9.454
322	36	4	0.0187	1.106	17.152	7.627
323	36	4	0.0187	1.063	15.533	8.442
324	36	5	0.398	2.634	15.674	6.788
325	37	1	-0.097101	7.587	15.344	4.015
326	37	1	0.1314	8.968	15.551	4.616
327	37	2	-0.6028	9.908	14.791	3.91
328	37	3	0.044367	7.585	15.665	2.951
329	37	3	0.044367	6.841	15.947	4.575
330	37	3	0.044367	7.303	14.273	4.074
331	37	4	0.0187	8.953	15.236	5.684
332	37	4	0.0187	9.234	16.63	4.56
333	37	5	0.398	10.784	14.964	4.344
334	38	1	-0.097101	16.167	11.156	8.627
335	38	1	0.1314	15.018	10.632	9.474
336	38	2	-0.6028	14.189	11.695	9.851
337	38	3	0.044367	15.771	11.647	7.712
338	38	3	0.044367	16.825	10.313	8.327
339	38	3	0.044367	16.763	11.89	9.207
340	38	4	0.0187	15.43	10.133	10.38
341	38	4	0.0187	14.437	9.889	8.883
342	38	5	0.398	13.462	11.296	10.398
343	39	1	-0.097101	18.782	8.188	1.979
344	39	1	0.1314	17.922	7.595	3.084
345	39	2	-0.6028	16.574	7.877	2.832
346	39	3	0.044367	18.498	7.748	0.999
347	39	3	0.044367	19.852	7.965	2.178
348	39	3	0.044367	18.645	9.289	1.939
349	39	4	0.0187	18.225	8.036	4.06
350	39	4	0.0187	18.078	6.494	3.118
351	39	5	0.398	16.064	7.469	3.58
352	40	1	-0.097101	13.119	4.62	9.63
353	40	1	0.1314	13.18	6.137	9.542
354	40	2	-0.6028	14.315	6.521	8.818
355	40	3	0.044367	13.062	4.183	8.611
356	40	3	0.044367	12.219	4.315	10.205
357	40	3	0.044367	14.024	4.232	10.144
358	40	4	0.0187	13.227	6.562	10.571
359	40	4	0.0187	12.263	6.511	9.036
360	40	5	0.398	14.303	7.513	8.793
361	41	1	-0.097101	19.632	18.099	11.304
362	41	1	0.1314	18.989	17.53	12.559
363	41	2	-0.6028	18.2	18.511	13.17
364	41	3	0.044367	18.846	18.427	10.59
365	41	3	0.044367	20.258	17.321	10.818
366	41	3	0.044367	20.273	18.967	11.565
367	41	4	0.0187	19.788	17.196	13.259
368	41	4	0.0187	18.36	16.655	12.283
369	41	5	0.398	17.809	18.086	13.978
370	42	1	-0.097101	9.401	10.864	19.406
371	42	1	0.1314	8.046	11.515	19.638
372	42	2	-0.6028	8.226	12.81	20.14
373	42	3	0.044367	9.987	11.458	18.672
374	42	3	0.044367	9.259	9.837	19.008
375	42	3	0.044367	9.963	10.807	20.362
376	42	4	0.0187	7.466	10.904	20.366
377	42	4	0.0187	7.491	11.556	18.675
378	42	5	0.398	7.315	13.183	20.271
379	43	1	-0.097101	3.496	5.064	18.131
380	43	1	0.1314	3.885	6.211	19.051
381	43	2	-0.6028	5.156	5.972	19.588
382	43	3	0.044367	4.228	4.979	17.3
383	43	3	0.044367	2.488	5.252	17.705
384	43	3	0.044367	3.475	4.111	18.7
385	43	4	0.0187	3.137	6.291	19.872
386	43	4	0.0187	3.891	7.16	18.471
387	43	5	0.398	5.356	6.747	20.176
388	44	1	-0.097101	5.817	12.793	6.898
389	44	1	0.1314	7.142	13.463	6.574
390	44	2	-0.6028	7.953	13.478	7.715
391	44	3	0.044367	5.991	11.747	7.23
392	44	3	0.044367	5.172	12.781	5.993
393	44	3	0.044367	5.296	13.35	7.704
394	44	4	0.0187	6.951	14.506	6.232
395	44	4	0.0187	7.647	12.9	5.757
396	44	5	0.398	8.798	13.924	7.446
397	45	1	-0.097101	7.559	4.462	2.876
398	45	1	0.1314	6.52	3.948	1.891
399	45	2	-0.6028	6.741	2.589	1.64
400	45	3	0.044367	7.485	3.901	3.832
401	45	3	0.044367	7.384	5.54	3.076
402	45	3	0.044367	8.578	4.333	2.454
403	45	4	0.0187	6.598	4.526	0.943
404	45	4	0.0187	5.504	4.093	2.322
405	45	5	0.398	6.039	2.31	0.996
406	46	1	-0.097101	7.034	9.364	6.198
407	46	1	0.1314	5.537	9.251	5.957
408	46	2	-0.6028	5.23	9.726	4.677
409	46	3	0.044367	7.586	8.759	5.446
410	46	3	0.044367	7.28	8.987	7.213
411	46	3	0.044367	7.353	10.424	6.12
412	46	4	0.0187	4.997	9.852	6.724
413	46	4	0.0187	5.231	8.185	6.049
414	46	5	0.398	4.247	9.629	4.576
415	47	1	-0.097101	13.772	14.731	19.328
416	47	1	0.1314	13.203	16.141	19.386
417	47	2	-0.6028	14.248	17.071	19.34
418	47	3	0.044367	14.341	14.59	18.385
419	47	3	0.044367	12.944	13.992	19.365
420	47	3	0.044367	14.448	14.559	20.192
421	47	4	0.0187	12.627	16.264	20.331
422	47	4	0.0187	12.52	16.295	18.521
423	47	5	0.398	13.82	17.967	19.38
424	48	1	-0.097101	5.141	6.067	4.422
425	48	1	0.1314	4.715	6.63	3.075
426	48	2	-0.6028	3.564	5.967	2.631
427	48	3	0.044367	4.33	6.212	5.168
428	48	3	0.044367	6.053	6.593	4.775
429	48	3	0.044367	5.362	4.983	4.329
430	48	4	0.0187	5.541	6.488	2.342
431	48	4	0.0187	4.507	7.718	3.182
432	48	5	0.398	3.335	6.372	1.755
433	49	1	-0.097101	5.145	8.406	10.449
434	49	1	0.1314	6.567	8.253	10.965
435	49	2	-0.6028	6.812	6.911	11.278
436	49	3	0.044367	5.005	7.79	9.535
437	49	3	0.044367	4.949	9.47	10.201
438	49	3	0.044367	4.422	8.077	11.225
439	49	4	0.0187	6.696	8.883	11.875
440	49	4	0.0187	7.279	8.596	10.182
441	49	5	0.398	7.748	6.872	11.607
442	50	1	-0.097101	7.549	12.031	14.171
443	50	1	0.1314	6.197	12.708	14.015
444	50	2	-0.6028	6.075	13.222	12.719
445	50	3	0.044367	7.644	11.198	13.441
446	50	3	0.044367	7.647	11.622	15.199
447	50	3	0.044367	8.364	12.764	13.995
448	50	4	0.0187	6.112	13.532	14.759
449	50	4	0.0187	5.391	11.964	14.204
450	50	5	0.398	5.18	13.65	12.675
451	51	1	-0.097101	1.813	5.062	10.653
452	51	1	0.1314	1.922	3.546	10.593
453	51	2	-0.6028	2.988	3.12	11.394
454	51	3	0.044367	1.632	5.389	11.699
455	51	3	0.044367	0.967	5.401	10.018
456	51	3	0.044367	2.751	5.526	10.282
457	51	4	0.0187	2.092	3.233	9.538
458	51	4	0.0187	0.972	3.096	10.957
459	51	5	0.398	3.012	2.131	11.317
460	52	1	-0.097101	18.768	16.019	15.96
461	52	1	0.1314	19.293	14.76	16.634
462	52	2	-0.6028	18.311	13.763	16.596
463	52	3	0.044367	18.512	15.804	14.901
464	52	3	0.044367	19.546	16.811	15.99
465	52	3	0.044367	17.862	16.383	16.488
466	52	4	0.0187	19.555	14.993	17.691
467	52	4	0.0187	20.206	14.414	16.101
468	52	5	0.398	18.707	12.971	17.046
469	53	1	-0.097101	19.354	12.51	8.515
470	53	1	0.1314	19.16	13.35	9.768
471	53	2	-0.6028	20.334	13.337	10.529
472	53	3	0.044367	20.185	12.924	7.905
473	53	3	0.044367	18.423	12.52	7.91
474	53	3	0.044367	19.592	11.462	8.794
475	53	4	0.0187	18.317	12.93	10.363
476	53	4	0.0187	18.911	14.394	9.473
477	53	5	0.398	20.15	13.897	11.328
478	54	1	-0.097101	11.44	13.923	9.237
479	54	1	0.1314	10.766	13.216	10.402
480	54	2	-0.6028	10.171	14.161	11.246
481	54	3	0.044367	10.688	14.502	8.658
482	54	3	0.044367	11.912	13.174	8.567
483	54	3	0.044367	12.223	14.615	9.613
484	54	4	0.0187	11.529	12.632	10.966
485	54	4	0.0187	9.993	12.519	10.009
486	54	5	0.398	9.751	13.646	11.983
487	55	1	-0.097101	9.566	11.507	2.403
488	55	1	0.1314	8.516	12.544	2.04
489	55	2	-0.6028	7.245	12.066	2.382
490	55	3	0.044367	9.539	11.303	3.495
491	55	3	0.044367	10.575	11.885	2.132
492	55	3	0.044367	9.375	10.563	1.85
493	55	4	0.0187	8.562	12.746	0.946
494	55	4	0.0187	8.727	13.487	2.592
495	55	5	0.398	6.604	12.779	2.124
496	56	1	-0.097101	17.685	1.566	16.695
497	56	1	0.1314	17.574	3.02	16.264
498	56	2	-0.6028	16.776	3.721	17.176
499	56	3	0.044367	18.149	1.504	17.703
500	56	3	0.044367	18.318	1.009	15.972
501	56	3	0.044367	16.678	1.101	16.727
502	56	4	0.0187	17.117	3.066	15.249
503	56	4	0.0187	18.591	3.47	16.226
504	56	5	0.398	16.739	4.657	16.846
505	57	1	-0.097101	9.812	16.69	16.599
506	57	1	0.1314	10.254	17.685	17.66
507	57	2	-0.6028	11.389	18.374	17.215
508	57	3	0.044367	9.563	17.225	15.657
509	57	3	0.044367	8.912	16.142	16.951
510	57	3	0.044367	10.624	15.959	16.401
511	57	4	0.0187	10.49	17.136	18.601
512	57	4	0.0187	9.427	18.403	17.856
513	57	5	0.398	11.631	19.004	17.943
514	58	1	-0.097101	7.221	8.387	18.01
515	58	1	0.1314	7.188	9.572	17.058
516	58	2	-0.6028	6.12	10.413	17.391
517	58	3	0.044367	7.353	8.742	19.054
518	58	3	0.044367	8.069	7.719	17.746
519	58	3	0.044367	6.274	7.814	17.936
520	58	4	0.0187	7.067	9.201	16.015
521	58	4	0.0187	8.148	10.13	17.135
522	58	5	0.398	6.147	11.163	16.741
523	59	1	-0.097101	18.557	4.699	11.796
524	59	1	0.1314	18.01	3.585	10.918
525	59	2	-0.6028	16.629	3.469	11.112
526	59	3	0.044367	18.073	5.663	11.532
527	59	3	0.044367	19.653	4.792	11.643
528	59	3	0.044367	18.361	4.471	12.865
529	59	4	0.0187	18.512	2.627	11.186
530	59	4	0.0187	18.225	3.821	9.852
531	59	5	0.398	16.329	2.732	10.517
532	60	1	-0.097101	19.57	3.964	4.02
533	60	1	0.1314	19.368	2.506	3.637
534	60	2	-0.6028	18.416	1.925	4.483
535	60	3	0.044367	18.612	4.518	3.92
536	60	3	0.044367	20.325	4.426	3.349
537	60	3	0.044367	19.927	4.036	5.068
538	60	4	0.0187	20.337	1.966	3.73
539	60	4	0.0187	19.021	2.45	2.581
540	60	5	0.398	18.326	0.981	4.189
541	61	1	-0.097101	1.771	19.256	17.939
542	61	1	0.1314	3.238	19.3	18.336
543	61	2	-0.6028	3.564	18.148	19.061
544	61	3	0.044367	1.575	18.363	17.307
545	61	3	0.044367	1.51	20.169	17.364
546	61	3	0.044367	1.133	19.207	18.847
547	61	4	0.0187	3.421	20.205	18.96
548	61	4	0.0187	3.863	19.36	17.417
549	61	5	0.398	4.526	18.232	19.291
550	62	1	-0.097101	15.216	5.393	19.703
551	62	1	0.1314	14.089	6.288	19.211
552	62	2	-0.6028	13.399	6.821	20.306
553	62	3	0.044367	15.924	5.982	20.325
554	62	3	0.044367	15.764	4.969	18.835
555	62	3	0.044367	14.803	4.56	20.31
556	62	4	0.0187	13.394	5.687	18.582
557	62	4	0.0187	14.517	7.11	18.596
558	62	5	0.398	12.681	7.391	19.927
559	63	1	-0.097101	16.722	12.711	19.379
560	63	1	0.1314	17.63	13.926	19.486
561	63	2	-0.6028	18.945	13.511	19.729
562	63	3	0.044367	17.056	12.06	18.542
563	63	3	0.044367	15.679	13.039	19.186
564	63	3	0.044367	16.749	12.131	20.325
565	63	4	0.0187	17.278	14.573	20.321
566	63	4	0.0187	17.584	14.502	18.536
567	63	5	0.398	19.488	14.339	19.79
568	64	1	-0.097101	12.539	15.329	12.459
569	64	1	0.1314	12.267	14.243	13.488
570	64	2	-0.6028	11.549	14.782	14.562
571	64	3	0.044367	11.58	15.743	12.082
572	64	3	0.044367	13.108	14.903	11.606
573	64	3	0.044367	13.134	16.146	12.918
574	64	4	0.0187	13.236	13.83	13.849
575	64	4	0.0187	11.679	13.427	13.011
576	64	5	0.398	11.402	14.033	15.197
577	65	1	-0.097101	4.912	16.88	2.124
578	65	1	0.1314	4.155	17.479	3.299
579	65	2	-0.6028	3.974	18.852	3.091
580	65	3	0.044367	4.338	17.031	1.185
581	65	3	0.044367	5.056	15.791	2.288
582	65	3	0.044367	5.906	17.365	2.026
583	65	4	0.0187	4.736	17.311	4.233
584	65	4	0.0187	3.166	16.977	3.391
585	65	5	0.398	3.478	19.187	3.883
586	66	1	-0.097101	8.907	2.075	8.953
587	66	1	0.1314	10.356	1.755	9.286
588	66	2	-0.6028	11.001	1.258	8.147
589	66	3	0.044367	8.863	2.841	8.149
590	66	3	0.044367	8.394	2.469	9.855
591	66	3	0.044367	8.383	1.157	8.612
592	66	4	0.0187	10.384	0.994	10.099
593	66	4	0.0187	10.864	2.68	9.636
594	66	5	0.398	11.936	1.067	8.422
595	67	1	-0.097101	1.942	11.995	17.391
596	67	1	0.1314	3.285	12.413	16.814
597	67	2	-0.6028	3.083	13.186	15.664
598	67	3	0.044367	1.348	12.895	17.66
599	67	3	0.044367	2.101	11.382	18.303
600	67	3	0.044367	1.379	11.395	16.646
601	67	4	0.0187	3.874	11.503	16.559
602	67	4	0.0187	3.842	13.004	17.575
603	67	5	0.398	3.988	13.428	15.334
604	68	1	-0.097101	13.843	19.518	7.057
605	68	1	0.1314	12.627	18.728	7.513
606	68	2	-0.6028	11.736	19.579	8.179
607	68	3	0.044367	13.532	20.329	6.364
608	68	3	0.044367	14.55	18.844	6.529
609	68	3	0.044367	14.358	19.964	7.934
610	68	4	0.0187	12.955	17.913	8.198
611	68	4	0.0187	12.129	18.278	6.626
612	68	5	0.398	10.968	19.013	8.452
613	69	1	-0.097101	4.31	1.618	14.2
614	69	1	0.1314	3.175	2.566	14.553
615	69	2	-0.6028	3.569	3.401	15.605
616	69	3	0.044367	5.204	2.197	13.886
617	69	3	0.044367	3.998	0.955	13.366
618	69	3	0.044367	4.57	0.992	15.08
619	69	4	0.0187	2.283	1.971	14.856
620	69	4	0.0187	2.918	3.177	13.66
621	69	5	0.398	2.795	3.993	15.792
622	70	1	-0.097101	3.971	16.884	15.373
623	70	1	0.1314	2.965	16.136	14.512
624	70	2	-0.6028	1.824	15.843	15.269
625	70	3	0.044367	3.526	17.834	15.737
626	70	3	0.044367	4.876	17.116	14.773
627	70	3	0.044367	4.265	16.26	16.243
628	70	4	0.0187	3.428	15.191	14.145
629	70	4	0.0187	2.689	16.768	13.639
630	70	5	0.398	1.207	15.359	14.661
631	71	1	-0.097101	15.021	18.77	11.283
632	71	1	0.1314	13.57	19.053	10.93
633	71	2	-0.6028	12.982	17.9	10.397
634	71	3	0.044367	15.076	17.955	12.037
635	71	3	0.044367	15.489	19.684	11.706
636	71	3	0.044367	15.582	18.465	10.374
637	71	4	0.0187	13.53	19.878	10.183
638	71	4	0.0187	13.025	19.367	11.847
639	71	5	0.398	12.042	18.143	10.186
640	72	1	-0.097101	1.97	5.295	7.003
641	72	1	0.1314	1.61	4.175	6.039
642	72	2	-0.6028	2.78	3.585	5.545
643	72	3	0.044367	2.556	4.888	7.855
644	72	3	0.044367	1.042	5.763	7.395
645	72	3	0.044367	2.572	6.067	6.481
646	72	4	0.0187	1.014	4.596	5.197
647	72	4	0.0187	0.998	3.415	6.573
648	72	5	0.398	2.485	2.868	4.926
649	73	1	-0.097101	13.5	19.26	3.564
650	73	1	0.1314	13.22	19.576	2.103
651	73	2	-0.6028	11.942	20.135	1.98
652	73	3	0.044367	13.453	20.191	4.17
653	73	3	0.044367	14.514	18.817	3.663
654	73	3	0.044367	12.751	18.536	3.948
655	73	4	0.0187	13.281	18.637	1.508
656	73	4	0.0187	13.985	20.293	1.731
657	73	5	0.398	11.815	20.319	1.013
658	74	1	-0.097101	6.62	3.59	16.536
659	74	1	0.1314	7.467	4.391	15.559
660	74	2	-0.6028	8.601	4.885	16.215
661	74	3	0.044367	7.207	2.736	16.936
662	74	3	0.044367	5.721	3.197	16.017
663	74	3	0.044367	6.297	4.238	17.378
664	74	4	0.0187	6.863	5.236	15.158
665	74	4	0.0187	7.774	3.732	14.716
666	74	5	0.398	9.112	5.395	15.533
667	75	1	-0.097101	14.109	2.191	16.531
668	75	1	0.1314	13.941	2.098	18.04
669	75	2	-0.6028	14.906	1.233	18.568
670	75	3	0.044367	15.119	2.583	16.285
671	75	3	0.044367	13.343	2.877	16.111
672	75	3	0.044367	13.985	1.187	16.073
673	75	4	0.0187	12.921	1.714	18.271
674	75	4	0.0187	14.057	3.112	18.484
675	75	5	0.398	14.749	1.211	19.548
676	76	1	-0.097101	16.167	8.701	19.649
677	76	1	0.1314	15.696	9.667	18.573
678	76	2	-0.6028	16.76	9.968	17.714
679	76	3	0.044367	16.532	7.761	19.183
680	76	3	0.044367	15.324	8.461	20.331
681	76	3	0.044367	16.988	9.16	20.239
682	76	4	0.0187	15.323	10.599	19.056
683	76	4	0.0187	14.866	9.198	17.999
684	76	5	0.398	16.396	10.598	17.038
685	77	1	-0.097101	10.122	7.842	6.269
686	77	1	0.1314	9.515	6.697	5.474
687	77	2	-0.6028	9.863	6.825	4.124
688	77	3	0.044367	11.229	7.822	6.178
689	77	3	0.044367	9.846	7.741	7.34
690	77	3	0.044367	9.741	8.813	5.889
691	77	4	0.0187	8.407	6.722	5.583
692	77	4	0.0187	9.897	5.731	5.873
693	77	5	0.398	9.442	6.057	3.657
694	78	1	-0.097101	7.897	8.171	1.822
695	78	1	0.1314	7.012	8.991	2.748
696	78	2	-0.6028	7.769	10.008	3.341
697	78	3	0.044367	8.317	8.82	1.025
698	78	3	0.044367	7.297	7.363	1.351
699	78	3	0.044367	8.728	7.713	2.398
700	78	4	0.0187	6.589	8.325	3.534
701	78	4	0.0187	6.178	9.433	2.159
702	78	5	0.398	7.144	10.507	3.931
703	79	1	-0.097101	1.985	9.11	3.245
704	79	1	0.1314	1.943	7.971	4.251
705	79	2	-0.6028	0.984	8.247	5.233
706	79	3	0.044367	0.992	9.224	2.758
707	79	3	0.044367	2.745	8.893	2.465
708	79	3	0.044367	2.253	10.059	3.755
709	79	4	0.0187	2.946	7.862	4.722
710	79	4	0.0187	1.684	7.026	3.724
711	79	5	0.398	1.001	7.476	5.858
712	80	1	-0.097101	18.974	12.085	13.093
713	80	1	0.1314	19.502	10.863	12.358
714	80	2	-0.6028	19.971	11.242	11.094
715	80	3	0.044367	19.787	12.833	13.219
716	80	3	0.044367	18.602	11.787	14.096
717	80	3	0.044367	18.141	12.544	12.521
718	80	4	0.0187	18.681	10.119	12.25
719	80	4	0.0187	20.328	10.409	12.949
720	80	5	0.398	20.3	10.41	10.663
721	81	1	-0.097101	12.534	15.315	2.038
722	81	1	0.1314	12.013	13.891	1.924
723	81	2	-0.6028	12.94	13.106	1.228
724	81	3	0.044367	13.499	15.324	2.588
725	81	3	0.044367	11.799	15.939	2.59
726	81	3	0.044367	12.685	15.747	1.026
727	81	4	0.0187	11.041	13.899	1.381
728	81	4	0.0187	11.856	13.476	2.944
729	81	5	0.398	12.55	12.194	1.184
730	82	1	-0.097101	19.094	19.013	2.274
731	82	1	0.1314	17.613	18.708	2.432
732	82	2	-0.6028	17.416	17.91	3.566
733	82	3	0.044367	19.468	19.557	3.168
734	82	3	0.044367	19.252	19.645	1.375
735	82	3	0.044367	19.666	18.068	2.155
736	82	4	0.0187	17.251	18.173	1.525
737	82	4	0.0187	17.052	19.663	2.539
738	82	5	0.398	16.438	17.744	3.618
739	83	1	-0.097101	3.555	12.068	3.602
740	83	1	0.1314	4.287	13.397	3.507
741	83	2	-0.6028	3.64	14.349	4.304
742	83	3	0.044367	3.548	11.713	4.655
743	83	3	0.044367	4.068	11.312	2.97
744	83	3	0.044367	2.509	12.184	3.249
745	83	4	0.0187	4.296	13.735	2.446
746	83	4	0.0187	5.336	13.263	3.854
747	83	5	0.398	4.158	15.19	4.203
748	84	1	-0.097101	18.476	17.229	6.494
749	84	1	0.1314	18.924	18.58	5.962
750	84	2	-0.6028	19.316	19.399	7.028
751	84	3	0.044367	19.311	16.738	7.038
752	84	3	0.044367	18.164	16.578	5.65
753	84	3	0.044367	17.616	17.358	7.185
754	84	4	0.0187	18.081	19.055	5.411
755	84	4	0.0187	19.778	18.433	5.263
756	84	5	0.398	19.597	20.261	6.623
757	85	1	-0.097101	6.383	14.398	17.314
758	85	1	0.1314	6.48	15.085	18.667
759	85	2	-0.6028	6.135	16.436	18.534
760	85	3	0.044367	5.345	14.469	16.925
761	85	3	0.044367	6.657	13.327	17.418
762	85	3	0.044367	7.077	14.879	16.593
763	85	4	0.0187	7.522	14.997	19.048
764	85	4	0.0187	5.788	14.586	19.381
765	85	5	0.398	6.215	16.83	19.442
766	86	1	-0.097101	4.923	18.248	11.081
767	86	1	0.1314	5.325	19.135	12.248
768	86	2	-0.6028	6.542	19.766	11.962
769	86	3	0.044367	4.805	18.861	10.161
770	86	3	0.044367	3.958	17.747	11.306
771	86	3	0.044367	5.7	17.474	10.907
772	86	4	0.0187	5.429	18.51	13.164
773	86	4	0.0187	4.533	19.898	12.417
774	86	5	0.398	6.753	20.328	12.754
775	87	1	-0.097101	7.059	19.415	8.521
776	87	1	0.1314	6.241	18.218	8.061
777	87	2	-0.6028	4.89	18.576	7.976
778	87	3	0.044367	6.951	20.249	7.796
779	87	3	0.044367	8.13	19.131	8.588
780	87	3	0.044367	6.711	19.751	9.52
781	87	4	0.0187	6.367	17.386	8.791
782	87	4	0.0187	6.607	17.886	7.064
783	87	5	0.398	4.408	17.763	7.674
784	88	1	-0.097101	11.234	2.429	12.847
785	88	1	0.1314	9.936	1.67	13.072
786	88	2	-0.6028	8.878	2.577	13.204
787	88	3	0.044367	11.162	3.038	11.92
788	88	3	0.044367	12.074	1.71	12.742
789	88	3	0.044367	11.437	3.098	13.709
790	88	4	0.0187	10.027	1.056	13.997
791	88	4	0.0187	9.751	0.996	12.206
792	88	5	0.398	8.062	2.029	13.348
793	89	1	-0.097101	18.364	3.41	19.682
794	89	1	0.1314	19.42	3.865	18.687
795	89	2	-0.6028	18.899	4.885	17.881
796	89	3	0.044367	18.059	4.261	20.328
797	89	3	0.044367	18.776	2.601	20.321
798	89	3	0.044367	17.474	3.025	19.142
799	89	4	0.0187	19.723	3	18.054
800	89	4	0.0187	20.309	4.238	19.242
801	89	5	0.398	19.627	5.14	17.256
802	90	1	-0.097101	15.352	15.267	15.001
803	90	1	0.1314	15.12	16.32	16.073
804	90	2	-0.6028	13.748	16.571	16.196
805	90	3	0.044367	14.836	14.323	15.277
806	90	3	0.044367	16.44	15.067	14.902
807	90	3	0.044367	14.962	15.625	14.026
808	90	4	0.0187	15.652	17.256	15.788